<VTKFile type="StructuredGrid" version="1.0" byte_order="LittleEndian">
  <StructuredGrid WholeExtent="0 127 0 127 0 0">
    <Piece Extent=" 0 127 0 127 0 0">
      <PointData>
      </PointData>
      <CellData>
    <DataArray type="Float64" Name="c" format="ascii">
-0.2728255887137092
0.5505856700170689
0.8574894070517095
0.9325988369832767
0.9477105834129439
0.9481669816844261
0.9462963515048134
0.9460480241386033
0.9486675509448284
0.9543027179952489
0.9623851117093697
0.9708318927369169
0.9707992262164563
0.9202673982825655
0.6296772984355752
-0.3270272606475685
-0.7804911586579636
-0.8842929791100138
-0.9050256161706149
-0.9041565275318464
-0.8829443788541702
-0.8240743295480496
-0.7099129347719501
-0.556899204632565
-0.4085114652398382
-0.2858198497920226
-0.2189157133541097
-0.2376139034780735
-0.3389797950065682
-0.4910484417006142
-0.6602978332694253
-0.7998423145642026
-0.8708877106260539
-0.8707116939691628
-0.7541513077915342
-0.4349056901192861
0.02665072779191292
0.3345566848301698
0.3470238108108625
0.03975135868358631
-0.4709492968654044
-0.7887542438057581
-0.8796896976844989
-0.8700800886531878
-0.6863782355006005
0.07595834104524242
0.7740243002159529
0.9366734929469568
0.9627378085293616
0.9649228177230531
0.9596658129511074
0.9151811275019189
0.6583207904340157
-0.2815333289243976
-0.7889133199760184
-0.8891128485407981
-0.8441946119088333
-0.5304935996396429
0.4266730216917065
0.8530566525853989
0.9412860862035699
0.9160033217450515
0.7183584819098735
0.00180929602557128
-0.713209552795754
-0.8941318758621898
-0.9195534467686373
-0.9111159407640637
-0.8963973954896729
-0.8846169309555464
-0.8797800884863888
-0.8743413712477431
-0.8264578189764272
-0.5607549321686579
0.3232731517476644
0.8290171263021692
0.9486572370771708
0.9646896266461431
0.9403003352061969
0.8161412530230586
0.3223618914140961
-0.5591430813821577
-0.8724406059327725
-0.9354116339997112
-0.9341658766879745
-0.9094091127684373
-0.8691227544827603
-0.8293491583684429
-0.8117526668108893
-0.8265957682419224
-0.8596366458295579
-0.8829556330838728
-0.8820394434524764
-0.8131333040169447
-0.5036659420037343
0.204104701518172
0.6858471558737286
0.8561924592931671
0.9074349784938043
0.9208880745496856
0.9197038182171443
0.9073059728054488
0.8862564167104606
0.8680914634856064
0.8614140188640405
0.8663610408382747
0.8797492286247608
0.8977534001833677
0.9147640847946376
0.9250207062632387
0.9274810724932075
0.9216809925959287
0.9051082060595302
0.8743848937793202
0.8198190638061839
0.7223701392305566
0.5758666251173866
0.3621870836067193
0.03326718571718409
-0.3215074166673501
-0.5760859482312507
-0.7533568594550532
-0.8532011998508994
-0.891079362065244
-0.8974737254977406
-0.8916725356442009
-0.8661794015598621
-0.6208433920980605
-0.03039988586005143
0.5057582168558069
0.7396910817366609
0.8344270881876423
0.8709331643566884
0.8857207935989632
0.8952209430266267
0.9056585080042699
0.9180607345808255
0.930360290405207
0.9374767117363907
0.9243617621157475
0.8299204296665842
0.4304231520719294
-0.4667725577804099
-0.8144220921560033
-0.8917034910445409
-0.8985601269317565
-0.863104049925083
-0.7466200592395515
-0.4811384017757396
-0.05121606856462469
0.3540197039099082
0.5616019357646871
0.6514183865931713
0.6843626564758275
0.6741690608269182
0.6104495545166611
0.4459014739673588
0.08635868980617709
-0.3830599719332127
-0.6925124258174459
-0.8351650515011413
-0.86622269857222
-0.8140551964199697
-0.7019284410024479
-0.6011230093986736
-0.5881518953740823
-0.6781566264388976
-0.8030605299556024
-0.876746268979566
-0.8987450687340339
-0.8738348472775411
-0.6818900488786889
0.1016365454531371
0.780988614877842
0.9354313873440816
0.9592225980117771
0.9612194769083509
0.958118395396926
0.9239037773999601
0.7088248094201558
-0.1637142918435507
-0.7586032904195652
-0.8855968433044816
-0.8663332043646891
-0.6670101813798783
0.04086450626969326
0.6556902198249457
0.8340454260128585
0.7885420088833437
0.4445822627098781
-0.3654806308980525
-0.7942384686184244
-0.8948670328565044
-0.9085979384411516
-0.9036083160581333
-0.8957744556623667
-0.8898640108434822
-0.8868546839103204
-0.8792621454117429
-0.8255145681053547
-0.5418481912734927
0.3710571440713185
0.8472550638345039
0.9534809448526894
0.9572696234204074
0.8945199684199425
0.633752476143925
-0.1355970510222366
-0.7497820437240424
-0.9100518154956342
-0.9291850538956614
-0.8946317100267308
-0.8012149835143059
-0.6427775498426783
-0.4978215534892713
-0.4579902425749773
-0.5592250220244738
-0.7367737181237969
-0.8494860970852752
-0.8854207253573272
-0.8740448063540249
-0.7739127150125646
-0.4484255238071546
0.1332578051320677
0.5653224548327332
0.7635359582469106
0.8431994252351909
0.8717167996178967
0.8804491605936853
0.8818172310251251
0.8814618403404064
0.8817765799006532
0.8829733192463253
0.8844341237051889
0.8852341624355961
0.8836803717162122
0.8765933643889873
0.8577490165379915
0.814118846999216
0.7272728882128842
0.5871907600309878
0.368533713998757
0.02552835620390772
-0.3272437023073213
-0.5559022995975893
-0.7036693511010317
-0.8019763627149952
-0.8567739123274137
-0.885184732266216
-0.8966216382689388
-0.8985239811510927
-0.8977662402335342
-0.8967671418156975
-0.8881490944204169
-0.8355492094481741
-0.6649669703866398
-0.3655708569635013
0.0189182785796919
0.3264341014497993
0.4829746207160408
0.5572581334813405
0.6052069803505316
0.6503476298781486
0.6954694408282801
0.7295312007769098
0.7327680256173386
0.6694984452552492
0.4373856090682048
-0.1459361345977417
-0.6934772629881034
-0.864088571437351
-0.8935450508871475
-0.8533584204549189
-0.6891857278284511
-0.2783397659326349
0.308128188391489
0.6627246355924878
0.8181140673340178
0.8777007966297734
0.8999438761629036
0.9073854140265979
0.9051660363164659
0.8896758396748626
0.8439710112522246
0.7214333001005184
0.4373651113035563
-0.07728515869307906
-0.5401687815322017
-0.7752466262597442
-0.8602841864789049
-0.8748939933712937
-0.8660125863042012
-0.8626525599630446
-0.8746320273879464
-0.893025657195632
-0.9048739783100712
-0.9072899689097912
-0.8829652812561223
-0.7201477490823032
-0.02859576436314265
0.7409033567366963
0.9273456922099633
0.9579317260644
0.9613518304566452
0.9591688712753877
0.9287779440682574
0.7319944716974499
-0.0955330058727418
-0.7388428576483288
-0.883111599605321
-0.8879156664190332
-0.8056991630292478
-0.5054087281538044
0.03477677797354684
0.3523954550966935
0.2687786082661758
-0.2030659948965037
-0.6759424363786085
-0.8524971274366892
-0.8947264601739213
-0.8995880631979576
-0.8945402415703153
-0.8875648572403854
-0.8834000255404304
-0.8835881056840968
-0.8818985502064335
-0.847132730271597
-0.6494169267331541
0.05914343113278023
0.6781177152387224
0.8607394754075387
0.8591578855268956
0.6958239530689757
0.1868402523997568
-0.5588878916376622
-0.856634366148169
-0.9152452923304075
-0.8787726594242742
-0.7270627908059318
-0.3688926350628265
0.1510916253428577
0.4682349043999637
0.5134415025164872
0.2709436775113264
-0.3166807982094325
-0.7436101981364165
-0.8680708879948321
-0.8919999493969055
-0.8738388826599668
-0.7901890237421444
-0.5846398396479912
-0.2369254965322564
0.1751503120922978
0.4342248145935205
0.5457062708892452
0.5893392523135678
0.6064113164519173
0.6123632058007733
0.6125672712660574
0.6088779723455047
0.6018858863363687
0.5910933529095788
0.5734918744017564
0.5398340592584636
0.4663789793000201
0.304447221212081
0.01201634011848595
-0.3133512446204308
-0.5443233970237003
-0.7014108396173169
-0.8048945212146463
-0.8610023292795768
-0.8891546602441917
-0.8973859426276637
-0.885998771685788
-0.8625808702925412
-0.8426786022422655
-0.8367901640328944
-0.8477451708066192
-0.8700040584773285
-0.8894697076261308
-0.8971825897955178
-0.876776853274076
-0.8167075396685927
-0.7215189970554233
-0.619672776422056
-0.5379584832908149
-0.4708176581377694
-0.3991041755446718
-0.3063876555347952
-0.1954817322281624
-0.1067328277124446
-0.1044838465390797
-0.2269864380529167
-0.4489590587694599
-0.6937067883799026
-0.847269094169638
-0.8908312565873355
-0.857254154732506
-0.679638413104698
-0.1942963872053914
0.443002065173587
0.7682522287761646
0.8831633757135521
0.9198779138006469
0.9302982829422355
0.932766364952035
0.9334233936987195
0.9336223982038768
0.9321729719285932
0.9243894821977986
0.8975543870190914
0.8210245585932187
0.6272645596924553
0.229316555899044
-0.313007639750604
-0.656921442707307
-0.8183187350278129
-0.8821470623716831
-0.9049250661157743
-0.9122450354975159
-0.9142023495910369
-0.9143655428973987
-0.9128955692579739
-0.895215607332453
-0.7787583826786472
-0.2503873273392757
0.6482304765924034
0.9086142452030573
0.9575902743022284
0.96505616373604
0.9631693876406424
0.9309461218349091
0.7278398656578338
-0.1098424788620994
-0.7392815174462373
-0.8819961709552564
-0.8976468564317498
-0.8731240177365598
-0.7939799328740401
-0.647487898162778
-0.537946916249153
-0.5680820929536929
-0.7107453586659889
-0.8323268172591035
-0.8812360634096604
-0.8926862754864336
-0.8864123686935191
-0.8658192563926521
-0.8389210337107356
-0.8240535254808097
-0.8306096124801546
-0.8512943370025722
-0.8586001083734994
-0.7876310230922514
-0.4803494133911496
0.08553773505402043
0.4194259519167974
0.4061726435317566
0.05648387323814764
-0.4833956351166912
-0.803178537820473
-0.8936569320271049
-0.8626859767842922
-0.6814202983824073
-0.2114053315768439
0.419918096880125
0.7527846307178568
0.8721713072506517
0.8836531596101628
0.7587407876937958
0.2546851228633075
-0.5762705106696321
-0.837647484588791
-0.8916685268153333
-0.8982664501500258
-0.8847992356650222
-0.8430418186420086
-0.7605809830224648
-0.6416451265975398
-0.5321407925067644
-0.4566420003024213
-0.411920812356291
-0.3890739772240199
-0.3813357930744596
-0.3842877550823572
-0.3947403341230135
-0.4103111108850827
-0.4298535483059215
-0.4544128936670824
-0.4884029802230184
-0.5398615617038995
-0.6166100941673659
-0.7131754249191515
-0.7989438212439153
-0.8536562271438077
-0.8863827899342439
-0.9052326335340479
-0.9120097637995367
-0.9022737502199648
-0.8557887805512363
-0.7491480294869305
-0.6073084597907029
-0.5094999399805272
-0.4927939983082922
-0.5593387803837194
-0.6841601454862068
-0.8051195558455988
-0.8510823013958043
-0.9053652469284361
-0.9157526338177009
-0.9056006442666473
-0.8876152070843398
-0.8691656603551311
-0.8507571114822884
-0.8291994006004806
-0.8011642139504496
-0.7676737672482775
-0.7394410394120048
-0.7344953515368053
-0.7629053573929783
-0.8148345333098627
-0.86780304851718
-0.895556092567268
-0.871377900882901
-0.7138792319606859
-0.2260817684692167
0.4615242260641363
0.7956697599227451
0.9001272009164748
0.9251387026271461
0.9255653523022155
0.9191943876371163
0.9130671286377219
0.9104508365938981
0.9123736815224422
0.9177029565755994
0.9236124343602717
0.9253883383145241
0.9140245062746405
0.8706118963632213
0.7550569703788813
0.4959862254678323
0.03822701503149487
-0.4364421574171812
-0.7102197672005716
-0.8407363152740059
-0.8946326439990064
-0.9133470761087661
-0.9182562533151033
-0.9182516019907355
-0.9075605704205032
-0.834346576921863
-0.4769309320975726
0.4498339025506462
0.8541440027816014
0.9485981923048823
0.9674335025767565
0.9655408676234832
0.9220965308626429
0.6768450990554435
-0.2205434268764696
-0.7634360896310121
-0.8830291033861042
-0.8966854238653877
-0.8860684970155038
-0.8640694795336459
-0.8342404197114465
-0.8156794515467855
-0.8252801730066694
-0.8549113893572807
-0.8800104177073073
-0.8895026130429435
-0.8806045244487353
-0.8341045743599534
-0.7227565323579783
-0.5801311060808154
-0.5025248381774344
-0.5303109702928823
-0.6441399895716342
-0.7722776868828479
-0.8305313361803356
-0.7846186803805465
-0.6428165449303948
-0.5264935931736778
-0.5371092833979172
-0.666643420465848
-0.8123997505474768
-0.8776323352882333
-0.8416324249445439
-0.6414934115122639
-0.13510308467728
0.4949962950988769
0.8086117289695256
0.9183689079734516
0.9541357076848269
0.9549818992813814
0.8801953763138043
0.4981503514613477
-0.47650066740291
-0.8200264844852444
-0.889533682316948
-0.9009422580632395
-0.9011623863435364
-0.8961245449034453
-0.8839665992528968
-0.8646231459144491
-0.8447769344213555
-0.8294884381405817
-0.8197834707052377
-0.8150861894500452
-0.8145297287404778
-0.8171342254250487
-0.8218021763636644
-0.8276647384283068
-0.8343028561627847
-0.8416100981452871
-0.8500163129982942
-0.8605942735816808
-0.874246491348479
-0.8896228556670031
-0.9020587245041686
-0.9090434780995833
-0.9123540559902996
-0.9122645817596151
-0.9008150276012417
-0.8424520115293681
-0.6315838326971247
-0.1893806586519904
0.2772151629212718
0.4909171732369955
0.5150361196827066
0.3825072752935558
0.03852217352006308
-0.4046531847528573
-0.5764229175948352
-0.8063586289669924
-0.8948991426215961
-0.9243128519020348
-0.9307158102033841
-0.9284256234211132
-0.9222803777548492
-0.9137635516976134
-0.90334316943695
-0.8920296141138423
-0.8825689465019478
-0.8790370174840203
-0.8839026632869577
-0.8950577425490132
-0.9043071993702139
-0.8886620175464754
-0.7722641846819552
-0.3459053143299816
0.3982836988512254
0.7869182221369512
0.9017704108326439
0.9230154722141515
0.9106322227847058
0.8795460745086242
0.8422947180802233
0.8122159979410433
0.7990033899478536
0.8067313476241228
0.8314358774730047
0.8646402116658388
0.8969450419832429
0.9176905642090091
0.921439241185766
0.9021113105249572
0.8409438460351278
0.6958579077717715
0.4021501285105
-0.08531279133129506
-0.5203974894222616
-0.7625000586552237
-0.8691408142586676
-0.9087362682913377
-0.9206825887632253
-0.9182003824562488
-0.8797204459605332
-0.6795050359062283
0.02064384685561893
0.6762252366859971
0.8916353070276845
0.9461244283176173
0.9446435589399973
0.8658651381596835
0.5106226748610417
-0.4077573346775548
-0.8032116325602559
-0.8818702458287055
-0.8769586918069897
-0.8471193124118307
-0.8214436766990901
-0.8191882348116112
-0.8405296311966146
-0.8672013267144055
-0.885014046424336
-0.8925952964532233
-0.8860644757549094
-0.8347749321158079
-0.6343663390913666
-0.1805385169174755
0.2870325630618433
0.4718942478805364
0.4213798873461449
0.1257906736914156
-0.3557127366783226
-0.7042109657123098
-0.8359855275527384
-0.8475363349948823
-0.8333055024606408
-0.8382331834184551
-0.8641572961747264
-0.8791708187874799
-0.8244841511053297
-0.5918434864657799
-0.04841134125061351
0.5412449034181535
0.8219150277755529
0.9181352703045126
0.9493970306193656
0.9606079402073534
0.9537332177966293
0.87141673117134
0.465022356570503
-0.5041325768722965
-0.8292169483950255
-0.8906270783737067
-0.8959152526868789
-0.8922480193022184
-0.8905010608805217
-0.8923531060772056
-0.8958291527882513
-0.8982765902687309
-0.8984547220162181
-0.8975890842868365
-0.8972525017206031
-0.898040922193386
-0.8993536518042395
-0.899961413505745
-0.9001097619668361
-0.9017343860333247
-0.9054595147328939
-0.9102706401671133
-0.9144660191615817
-0.9165592961106498
-0.9163657949953276
-0.9143609455451137
-0.9115096637141445
-0.9084927007259376
-0.9014738989695307
-0.8659698791420112
-0.6938660087459084
-0.09204953646298848
0.5551512506228187
0.8092123571691803
0.8798244243296812
0.8828726684721434
0.8396331849925794
0.7141486288170276
0.4219032122616607
0.1577103138757929
-0.3892689561715937
-0.7030905349320098
-0.8423542401734153
-0.8976693940205714
-0.9185505320198468
-0.9236762468276583
-0.9213969276056857
-0.915532757669297
-0.9087118018341611
-0.9033125349644179
-0.9013514266914209
-0.9036907084456419
-0.9079616804326121
-0.9014208827394513
-0.8319964357290269
-0.520497372645702
0.2387213478242891
0.7434860196202547
0.8946582177629218
0.9205835659655242
0.8943382887851479
0.8106232234631525
0.6578948702414427
0.4899122634423668
0.3647901428074388
0.3112058919074578
0.3394610676125971
0.4365284294538778
0.5776999490119661
0.7315537295889536
0.8441344187320046
0.9023040969547845
0.9236597612217439
0.9211959369745274
0.8931416633095871
0.8180528361777454
0.6405387213751922
0.2763864965876487
-0.2753037268215673
-0.6618980735624564
-0.84012285699022
-0.9049031352201357
-0.92232119778028
-0.9108767581118943
-0.8289334784109533
-0.5057122673638765
0.176880122985874
0.6366717444888355
0.8001860995947553
0.8026020553695918
0.622068503455305
0.06376151509615813
-0.62747374747058
-0.8418983734173793
-0.8600391195874489
-0.7807330725357323
-0.6315154492674251
-0.5248952250621243
-0.5466806697203352
-0.6796429490331815
-0.8133965718054419
-0.8778776623783638
-0.8940704084600217
-0.8706297874063952
-0.7242917016607465
-0.1725237434762076
0.5247777578153491
0.8040480486441395
0.875144254293505
0.8590306600453803
0.7446433606635914
0.4034673768870264
-0.2848990155376893
-0.7459195957890664
-0.8694605283047611
-0.8914502749893525
-0.8953296922695236
-0.8902296984714666
-0.8333435478959377
-0.5821816163961463
0.02578910785678096
0.5937272858621467
0.8384178450347018
0.9181312683403936
0.9418552730760098
0.9499512062174085
0.9504380344631913
0.9231323913480673
0.7686046445989239
0.1804215712818959
-0.6307620596428681
-0.8557528216132508
-0.8850468743622102
-0.862906636764334
-0.8301435125713806
-0.814123519971351
-0.8256911775465017
-0.8564959838950216
-0.8859656130582846
-0.9004090506856145
-0.9042157274034581
-0.9043481297934826
-0.9029534568332639
-0.8969103957161232
-0.8802093097337182
-0.8575010663633064
-0.8456287699325176
-0.8517090564106197
-0.8714518010344275
-0.8944619742256822
-0.9094457754680908
-0.9143805919006244
-0.9127712419118507
-0.9086518866097555
-0.9036347915187222
-0.8905827711069451
-0.8244346358025578
-0.5072235485525373
0.4072563002783972
0.838978758655306
0.9416353075289113
0.9574887258987457
0.9522171773679992
0.9373059522011786
0.9035137122700694
0.817963349171615
0.7231977237363537
0.4290583594398992
-0.04576496935659585
-0.462870321662642
-0.6940077664639802
-0.816635534006668
-0.8755811374495343
-0.9016725546026726
-0.9089467352546009
-0.907232964521968
-0.9039357288090618
-0.9032882405543123
-0.9060852189648664
-0.9065220752362009
-0.8754841053139814
-0.6948318421865229
-0.0635995636358152
0.6380250041375086
0.8733686067645711
0.9191779658918183
0.8909599596030457
0.7584954739688156
0.4177431375346184
-0.1072062238628327
-0.4723864600734684
-0.6176227445111442
-0.6573923633021365
-0.6380959864970371
-0.5511451169194467
-0.3307306203499606
0.0939193274282375
0.5121161377810421
0.761872343502153
0.8757206972274759
0.9189930866948938
0.9296126281797433
0.9197363234976523
0.8799821845792072
0.7706639636197797
0.494506456621481
-0.04615636889772819
-0.5643972643849614
-0.8147424239702745
-0.9017717546665017
-0.9218351633626317
-0.901769694153475
-0.8056393039209405
-0.5485632706873153
-0.1465408591570633
0.1805139402126568
0.2004290154113733
-0.1110039055809972
-0.5448001998198075
-0.799983877638261
-0.8565878286285366
-0.7715598392035454
-0.4255154015112824
0.1182311035312483
0.4049165825931565
0.3469966517766753
-0.05768567269877736
-0.5688669911374012
-0.8225856102606283
-0.8855174321232983
-0.8482425231890233
-0.5803952208359749
0.3068099966861603
0.80926588872043
0.9353847617128502
0.9589632344115434
0.9546624360560828
0.9205567517265065
0.7809941780676113
0.287115163051964
-0.5509054465587702
-0.835806912834978
-0.8932052269206869
-0.8972871777013556
-0.8639323924369562
-0.686223346181888
-0.06375878324586783
0.6033307061353417
0.8565209563460894
0.9264832019079386
0.9425966090488807
0.945512134865117
0.9441127462000415
0.9273759933991662
0.8393925029350442
0.493160133559949
-0.3075596080725104
-0.7757186187240775
-0.8721329182818314
-0.831307479024936
-0.6933717842651171
-0.5252193781868258
-0.4440623143554096
-0.4938780595681905
-0.6452339488963138
-0.800088763476228
-0.8762026410448011
-0.8976503802293631
-0.8990318237752208
-0.8883821998347202
-0.8482627131886247
-0.7407764707460217
-0.5949227468311927
-0.5126480336448224
-0.5276124480491773
-0.6218362108681734
-0.7492640461165563
-0.8440599751928725
-0.8916793298654253
-0.9074320294650959
-0.9084389939533674
-0.9035400367140446
-0.8867191917759868
-0.8025505961863654
-0.4086835395047546
0.5740724964417566
0.9047103982499287
0.9652155081952403
0.9671674114485547
0.9587241883997956
0.9491917364022667
0.9377066450643832
0.9159043795822982
0.8881150279686217
0.8174258207571031
0.6704272831811782
0.4191639864714871
0.02787920786589582
-0.3778424139875644
-0.6449767639663322
-0.8040027100334737
-0.8770115129682766
-0.8995599652300618
-0.9033481766713681
-0.9047116067792866
-0.9071339931546736
-0.8985322031924685
-0.8173933517416884
-0.4375468314158978
0.4132015686321011
0.819525662711012
0.9134291065649194
0.903161827498342
0.7790301181599996
0.3575285293914961
-0.3376745649386207
-0.7241087441127138
-0.8615891039126793
-0.902418501899414
-0.910608850006133
-0.9039918575315445
-0.8798611004078298
-0.8144634871443129
-0.650148969378497
-0.2989786098860424
0.2512732922065426
0.6430016999404269
0.8299963835764701
0.9037076611906596
0.9283859365817144
0.9297744594878937
0.9076602363609748
0.8312391064203156
0.6115651418269973
0.1116410157210075
-0.4890082724393021
-0.7930630924662562
-0.8966204342178057
-0.919610262665744
-0.9022975385658655
-0.8419067990134675
-0.7382552819155696
-0.6390570827253678
-0.6256965453256293
-0.7104619554901271
-0.8151438464552059
-0.867264289194037
-0.8352268461055525
-0.5864749018531732
0.194700375798032
0.7118729884697081
0.8550851293640632
0.8300602942201177
0.6039653813755883
-0.04133243034616783
-0.6835121537094826
-0.8621488839620256
-0.8326025864428247
-0.4915857581056033
0.5125457902266939
0.886897598993698
0.9612477192792223
0.9714725654178542
0.9705904291230878
0.9604313957760872
0.8986633181909595
0.594083432105452
-0.3358986395363641
-0.7860459041931679
-0.8822906629933316
-0.8856538050232147
-0.8136087172010418
-0.4663054027163871
0.4360700770912239
0.8416553511984757
0.9371820732731637
0.9521560638102439
0.9504440779461568
0.9453009026722228
0.9299122275540718
0.8643514361839192
0.6129882049661493
-0.05514776089118759
-0.669533021584417
-0.8584369394573766
-0.8400824952292597
-0.6136014057911525
-0.08567387833863765
0.3897495841280283
0.5437021559958687
0.4569918101015283
0.07576883922684853
-0.4890297606546611
-0.7977425830390198
-0.8814514612688187
-0.8896026686658058
-0.8525557338206176
-0.694725525214183
-0.2401966834954973
0.2740925732459876
0.4851316080828079
0.4689373153030091
0.2553063679590909
-0.1644781430816952
-0.553254754988134
-0.782214249428363
-0.8771145670533537
-0.9048854459158071
-0.9069859890393297
-0.8920293394369173
-0.8150299411121076
-0.4563652596241481
0.5006334471693417
0.8749711596974994
0.9519165538880475
0.9577998470649114
0.9494926218006643
0.9403333470283236
0.9334573644450241
0.9277188821671779
0.913826172595396
0.9070996142119681
0.881508965299508
0.8258505391813046
0.7125291308067397
0.4960131668733448
0.08665541617096736
-0.4307297253644982
-0.7520857871556796
-0.8707554377898341
-0.900457241552755
-0.9074068984611423
-0.9080702412291045
-0.881232034737102
-0.7093687235930191
-0.041424892025309
0.6807920270653242
0.8889661414688631
0.9157916696843491
0.8446564138225877
0.5147940212182337
-0.2745817701721985
-0.7580934140016525
-0.9049860143706807
-0.9407148158351661
-0.9462420085995065
-0.94434680583914
-0.940639764900824
-0.9346181786575389
-0.9202960694190002
-0.8811665172462141
-0.7776665424161613
-0.5252103417435642
-0.04379934344041101
0.4682447014389545
0.7508339314319282
0.8722532156673898
0.9183026651283158
0.9302349991112235
0.9176966324074307
0.8585351859242007
0.6726026773619918
0.2107563923052161
-0.4211304310500901
-0.7623725948228847
-0.883065781354183
-0.9142707167070458
-0.9093730193062208
-0.8871387854914357
-0.8629330101186984
-0.8547328293989639
-0.8667041177710277
-0.8836340841598118
-0.8818773324750214
-0.8016742302372603
-0.4018381262831792
0.5487712857415977
0.8856057115789909
0.9528657101668179
0.9430030394587997
0.8422719545311366
0.4291826437929373
-0.4767044804584017
-0.8239217464084634
-0.8303257377313386
-0.4887569281108574
0.5297438907125663
0.8934798637277455
0.9631864592019651
0.9724308869926153
0.9731227083878432
0.9697522752541098
0.9321681504346112
0.7048724167219029
-0.1776253911152806
-0.7443897993019956
-0.8707574621385954
-0.8724803996959536
-0.7651214034853739
-0.2799066443956673
0.6471166965023968
0.9170455142477443
0.9626971680527713
0.9624795635812532
0.9539556798619311
0.936872767070053
0.8811916767582825
0.6803179370830893
0.1115149559714202
-0.5711117479061713
-0.8407015984307411
-0.8780157828198009
-0.7322035639821753
-0.1432412453160669
0.5699681682522395
0.8360338934015289
0.8960548496845939
0.8624636514073358
0.6733463652566212
0.09136699482031538
-0.630612597881151
-0.8495282114652927
-0.8753282125677807
-0.7914043847559454
-0.4139518221559379
0.4201163061739377
0.7914905323271938
0.8801168820451634
0.873360580541503
0.8019517159760841
0.6142866394090574
0.2023954784352542
-0.3893280434788107
-0.7441871055439523
-0.8731481658252195
-0.9059759637333439
-0.9024200037907415
-0.8531503266599165
-0.6225129883710303
0.1258090915092556
0.684318287819589
0.8579317750537934
0.8943029888626238
0.8934337969376694
0.8871067832284431
0.8873909811863104
0.89671877779329
0.8784009249258387
0.9099114708122075
0.9198666403630754
0.9171091458418704
0.8999362806191084
0.8500014024372906
0.7025339489880306
0.2998340745312869
-0.3995309947735938
-0.7866590671879724
-0.8880223177985868
-0.9091822018541628
-0.9071220026932282
-0.8508159174929668
-0.5479109528432855
0.3468227347135087
0.8116394208273205
0.9122958074843375
0.8977124987150249
0.7333602884822489
0.08465642178597912
-0.6625012573739731
-0.8962317280284207
-0.9445937884052303
-0.9485383218140961
-0.943647616290241
-0.9384461191412367
-0.9348274435824661
-0.9327064758276299
-0.9305880594741315
-0.9243272470015509
-0.9033400128953335
-0.8411450198256525
-0.6805287175189978
-0.3316466810079292
0.2169773327728801
0.6216822542828417
0.8217497761200573
0.9015697959062192
0.9259549886541897
0.9200059591549111
0.8714489339301098
0.712452794001784
0.30658447125814
-0.3138415299054383
-0.6957986558943834
-0.8496443784504725
-0.9001638124819333
-0.910048783439408
-0.9058467373133623
-0.9003406177506502
-0.8986874689607354
-0.8985666833626684
-0.8840133671271576
-0.7804343981135246
-0.294675285016079
0.6584716827820691
0.9201582896240204
0.963683272509282
0.9591691212766963
0.9068950886954343
0.6486615680993513
-0.2232818999582568
-0.7704154354498937
-0.8397974471755085
-0.5647814937051345
0.3924852041320671
0.8527761637764631
0.9544939367401373
0.9719931180802617
0.9747963826383953
0.9720941997645624
0.9357890641916261
0.7147241778953047
-0.154649293518112
-0.7354326952308727
-0.8658155058993534
-0.8660800179256058
-0.7498019499067695
-0.2379216110955471
0.6714401025029473
0.9244932347499547
0.9653049359806657
0.9612806159498984
0.9414774202213008
0.8865293272206261
0.712255975816089
0.2218588135559482
-0.483274668909648
-0.8149081528289197
-0.8989267310572978
-0.8611960859866131
-0.5758813316601253
0.3347975488402213
0.8226882810243893
0.9421708915601866
0.9630020668494363
0.9500299153882986
0.866124556912989
0.5005039909797685
-0.423407995990173
-0.8073760731580847
-0.8618158033104143
-0.7372212152945263
-0.1756882428723404
0.6836391749141797
0.9200219768386977
0.9577701711553077
0.9517468207268955
0.9293871136056039
0.8753724696085233
0.7250986221046503
0.3261691131428397
-0.3385825670652028
-0.7415629153939918
-0.8770739478213734
-0.906770271044829
-0.8910023998621125
-0.7986123806517484
-0.4806039302335474
0.0672720323121959
0.4375861270417474
0.5633271062528437
0.5900556180354554
0.6020691634434688
0.6436557414127986
0.7260659576921705
0.7045650893521339
0.8563310189140585
0.9125327295883828
0.9305035285385301
0.9364021794426484
0.9325363258800603
0.8946738727612783
0.7234840840869744
0.143440044916393
-0.6302909140414388
-0.8614721930914873
-0.9078310016528566
-0.9016552387764681
-0.8004218030905411
-0.3248148330183686
0.5773465970000666
0.8695044748440457
0.9163132559650518
0.8695452873888859
0.5943898169188585
-0.3260822127875643
-0.8269800860352502
-0.9386430944597199
-0.9518243850575967
-0.9455651268998809
-0.9372774728564112
-0.9307090234558022
-0.9265415980516508
-0.9246846686606619
-0.9246719886605295
-0.9254232905265707
-0.9243351801923475
-0.9148925659290811
-0.8812420446882953
-0.78616214388201
-0.5514311373612795
-0.08728877901654461
0.4548638609247654
0.762162033823779
0.8844570703133301
0.9212007918829124
0.9200975698285733
0.8814696395691023
0.7568923664104177
0.4427337719296844
-0.1047551792320474
-0.5569518429923309
-0.7819881207767376
-0.8719784104356901
-0.9015030920109387
-0.9071528256355257
-0.9061382067755419
-0.9037967865174793
-0.8877202518981672
-0.7815841054845017
-0.2830234206617174
0.66876988100222
0.9176276571402889
0.95678744431406
0.9550812242648765
0.923985463838866
0.7553179866299126
0.06292210899772294
-0.7016812860667159
-0.854750815758218
-0.6940145478521959
0.0318512580154528
0.7138600619125107
0.9151118176621211
0.9607557690976678
0.9693976604838765
0.9619407052271691
0.903267310738132
0.6145423078689373
-0.2920296143958266
-0.7672733102187622
-0.8705111323742272
-0.8705194889090607
-0.7817759206563385
-0.3884453714961795
0.489720277399083
0.8370442552728363
0.9112126402503522
0.9048273661429855
0.8450921338828301
0.6675820085676359
0.225001956106052
-0.4323626007452328
-0.7871794047075309
-0.8972377870478508
-0.9104637251839053
-0.8335964481334366
-0.4386523950031807
0.5604565171570738
0.895732271555159
0.9601733343107673
0.9681938094158342
0.9615177479816359
0.9149785940302778
0.667637938088419
-0.2174903343771229
-0.7624907995046557
-0.8569923821917541
-0.7318587137532345
-0.1378052163604443
0.7169850405219935
0.9327889963079636
0.9629181361254399
0.9574901699273434
0.9466338408817628
0.9302703435724273
0.8870563628158311
0.7450174550114311
0.3333199333243116
-0.3571165450892267
-0.7551775369868766
-0.8823153649077253
-0.9061471971211317
-0.8847569285326016
-0.8066434261617118
-0.6612341572992718
-0.5234018367288005
-0.4508086797763292
-0.4237596545835411
-0.3836610408541622
-0.2500365492332312
0.0474491638650422