<VTKFile type="StructuredGrid" version="1.0" byte_order="LittleEndian">
  <StructuredGrid WholeExtent="0 127 0 127 0 0">
    <Piece Extent=" 0 127 0 127 0 0">
      <PointData>
      </PointData>
      <CellData>
    <DataArray type="Float64" Name="c" format="ascii">
-0.5015617943434133
-0.5012360457227113
-0.5009105925045301
-0.5006438561949836
-0.5004845599973996
-0.5004590314000271
-0.5005631750008757
-0.5007618949552221
-0.5009967267270774
-0.5012000496586297
-0.501312381774867
-0.5012984028363392
-0.5011575029629113
-0.5009256205119943
-0.5006668815228417
-0.5004561441873512
-0.5003566605115747
-0.5003996035971573
-0.5005726593477269
-0.5008223936535805
-0.5010704171306697
-0.5012385298081989
-0.5012750151968886
-0.5011738053878778
-0.5009799809606308
-0.5007784805589782
-0.5006677384542247
-0.5007255477409222
-0.5009786894478759
-0.5013879499997932
-0.5018548867105039
-0.5022483790705663
-0.5024421013503144
-0.5023516589964339
-0.5019617807180284
-0.5013370105875196
-0.5006120945226525
-0.4999614661854971
-0.4995526797261652
-0.4994959707941501
-0.4998072826579382
-0.5003998281811252
-0.5011085704068247
-0.5017386075169979
-0.5021203856334693
-0.5021552722083643
-0.5018410113243713
-0.5012726284098153
-0.5006184011485866
-0.5000745219864874
-0.4998083148750683
-0.4999067510218677
-0.5003489509854422
-0.5010139347520696
-0.5017205449706817
-0.5022837837607369
-0.5025679366653312
-0.5025216713695837
-0.5021882419464392
-0.5016903107770715
-0.5011933335727017
-0.500855993961778
-0.5007812221536149
-0.5009838094001474
-0.5013866288476495
-0.5018470065842038
-0.50220320680819
-0.5023247378528662
-0.5021513138959431
-0.501710828004421
-0.5011126307790691
-0.5005175009948497
-0.5000910710681244
-0.4999534290783104
-0.500141381776585
-0.5005973080094481
-0.5011887837269416
-0.5017509421148373
-0.5021357957213151
-0.5022528042614497
-0.5020905331331033
-0.5017158174895402
-0.5012519626137857
-0.500841599501387
-0.5006038339380202
-0.5005983251834834
-0.500808238118676
-0.5011480756305553
-0.5014932545615299
-0.5017206213277873
-0.5017465120899166
-0.5015514203600262
-0.5011852611074302
-0.5007523679537917
-0.5003802081516927
-0.50018043392361
-0.5002142019132684
-0.5004733664616449
-0.5008838860152791
-0.5013294376540136
-0.5016861120284893
-0.5018565972478956
-0.5017945431769306
-0.5015142698637737
-0.5010850928196454
-0.5006124870446625
-0.5002106755428494
-0.4999733993151403
-0.4999508168419382
-0.5001392708775564
-0.5004865951079982
-0.5009102280731265
-0.5013213186599274
-0.5016470812618056
-0.5018456960071968
-0.5019113885739154
-0.5018702954036934
-0.5017695815101963
-0.5016631268641781
-0.5015972687133475
-0.501599729517791
-0.5016739522001561
-0.5017996817648089
-0.5019391115925244
-0.5020467284738062
-0.502080462732394
-0.502011855986474
-0.5020396646940334
-0.5018277573526024
-0.5015954166486718
-0.5013840630216501
-0.5012292935335892
-0.5011510492402593
-0.5011471767935193
-0.5011926256616667
-0.5012451153730209
-0.5012562789945078
-0.5011856634157653
-0.5010139915092102
-0.5007519154040785
-0.5004411339301429
-0.5001462923980413
-0.4999385688715798
-0.4998748729698513
-0.4999790182601165
-0.5002316215411905
-0.5005730701519223
-0.5009194438856529
-0.501186756123665
-0.5013161506252708
-0.5012924084666934
-0.5011498482390644
-0.5009628447771253
-0.5008224652514396
-0.5008055763448851
-0.5009465645674783
-0.5012221691386102
-0.5015556727836125
-0.5018394717611467
-0.5019685341022706
-0.5018743444593324
-0.5015497374618605
-0.5010577024935433
-0.5005204338461978
-0.5000889618022866
-0.4998994995329726
-0.5000290970016399
-0.5004664609503705
-0.5011100065645387
-0.5017947982555151
-0.5023387322699471
-0.5025925607282474
-0.5024798584579863
-0.5020182753026673
-0.501318094401665
-0.5005572626197481
-0.499935983793154
-0.4996205814705952
-0.4996934628028323
-0.5001277379824454
-0.5007971469557191
-0.5015173851459629
-0.5021025379751723
-0.5024170728259109
-0.5024091445641764
-0.5021191077214279
-0.5016634775661731
-0.5011988304046555
-0.5008742743375618
-0.500785529788787
-0.5009455151128182
-0.5012821951057868
-0.5016645470557572
-0.5019468158593898
-0.50201555356605
-0.5018250499361367
-0.5014119863834515
-0.500886021431551
-0.5003984111224307
-0.5000963893221623
-0.5000765624878861
-0.5003531022483032
-0.5008526581780521
-0.5014378691758546
-0.5019501966524165
-0.5022566723591988
-0.5022862045108526
-0.502046628215372
-0.5016197388990237
-0.5011363509967538
-0.5007375928083371
-0.5005327341407355
-0.500566383803197
-0.5008062181525003
-0.5011555974866799
-0.5014862465106806
-0.5016793527772875
-0.5016619140907079
-0.5014282316443556
-0.5010414106275477
-0.5006147302786498
-0.5002776009366432
-0.5001355412390935
-0.5002366921608893
-0.5005563138856036
-0.5010045257270895
-0.5014537743166426
-0.5017757891019875
-0.501876205098481
-0.5017180178097567
-0.5013296408751289
-0.5007971525290139
-0.5002429760891669
-0.4997956460035194
-0.4995578447384059
-0.4995814347527761
-0.4998569442358128
-0.5003203496433534
-0.5008738762355658
-0.501413051436333
-0.501851446505825
-0.5021370494467537
-0.5022579998282021
-0.5022385783400437
-0.5021281425971671
-0.501986387832201
-0.5018683788227366
-0.5018124611497504
-0.5018333537202569
-0.5019214297008363
-0.5020476719443875
-0.5021725195501389
-0.5022562001187353
-0.5022682334548363
-0.5023275426364328
-0.50225029104966
-0.5021429215952952
-0.5020266018452819
-0.5019190434962798
-0.5018286934497447
-0.5017511731585463
-0.5016693239191383
-0.501557445840159
-0.5013891840348035
-0.5011473463427578
-0.5008330567415662
-0.5004712895343566
-0.5001101830923969
-0.4998127903973256
-0.4996421199759441
-0.4996430025434391
-0.4998264021970736
-0.5001619887265439
-0.5005825184377148
-0.5009996065068537
-0.5013265750180435
-0.5015018002687429
-0.501505845145868
-0.501367208096052
-0.5011542171325066
-0.500954241915364
-0.5008456116857076
-0.50087109594753
-0.5010224806535916
-0.5012424168330026
-0.5014434202291019
-0.5015377062873215
-0.5014682178374268
-0.5012313543952739
-0.5008843501652743
-0.5005338140451844
-0.5003065748832259
-0.5003097744371416
-0.50059259015658
-0.5011236691459906
-0.5017936908069688
-0.5024428438325783
-0.502903706295713
-0.5030460188419629
-0.5028117140288256
-0.502232930682998
-0.5014292523446344
-0.5005828723910404
-0.4998942323754714
-0.4995274651934997
-0.4995621517426512
-0.4999694991266356
-0.5006230825808495
-0.5013399459842027
-0.5019358870948107
-0.5022758343502238
-0.5023056443884365
-0.5020597467546637
-0.5016453288993851
-0.5012078313254674
-0.5008862567803208
-0.5007705820874924
-0.5008749299041849
-0.5011361289773151
-0.5014381607737705
-0.501653228719711
-0.5016849456542076
-0.501500070126481
-0.5011401038743974
-0.5007099042834928
-0.5003461253310079
-0.5001739668555015
-0.5002655492844261
-0.5006144577728558
-0.5011361271493107
-0.5016938984308155
-0.5021408096475898
-0.5023625922445426
-0.5023090761668185
-0.5020064802381764
-0.5015485651240138
-0.5010692001341763
-0.5007031453323206
-0.5005458287258001
-0.5006247516288518
-0.5008924505223832
-0.5012435290052959
-0.5015494553132036
-0.5016990907442044
-0.5016324173881186
-0.5013583940406456
-0.500952690028314
-0.5005358269921069
-0.500237092342056
-0.5001543086207095
-0.5003222844605442
-0.5007009283906834
-0.5011870504196079
-0.5016449333916589
-0.5019446177883643
-0.5019961474082708
-0.5017715713561915
-0.5013111122461391
-0.5007134115793128
-0.500112174858503
-0.4996439828015287
-0.4994148065412183
-0.4994744518603585
-0.4998067084760052
-0.5003378882174782
-0.5009598570282219
-0.5015590551129947
-0.5020424529009377
-0.5023543058284311
-0.5024816631521403
-0.5024498434453382
-0.502310827389511
-0.5021280935008251
-0.5019613939177469
-0.5018545602458361
-0.5018285661345117
-0.5018807239022466
-0.5019893319532838
-0.5021218253555725
-0.502243940290361
-0.5023276620656644
-0.5023599430376323
-0.5024196434304055
-0.5024521889340043
-0.5024572466176205
-0.5024318442844981
-0.502369406917177
-0.5022599965037687
-0.5020920139275943
-0.501855485027815
-0.5015466590966569
-0.5011730637679402
-0.5007575680906395
-0.5003396445502607
-0.4999721616783397
-0.4997129268699108
-0.4996118726405082
-0.4996968247787147
-0.499962296144659
-0.5003657132745138
-0.5008335307390698
-0.5012765067624146
-0.5016103865966454
-0.501776528603764
-0.5017569199398133
-0.5015792174571642
-0.5013095747360102
-0.5010340308301043
-0.5008329150800136
-0.5007559728074992
-0.5008068927356741
-0.5009433118440475
-0.5010928478422261
-0.5011798222643463
-0.5011537476795069
-0.50101034491507
-0.5007981126000876
-0.5006072497644696
-0.5005426008643999
-0.5006878154792231
-0.5010723989089093
-0.501653957634953
-0.5023230517835816
-0.502929485685357
-0.5033212457262859
-0.5033844084945845
-0.5030741554465042
-0.5024305427674699
-0.5015753272650336
-0.5006881955405862
-0.4999645046708114
-0.4995633419509889
-0.4995616715998127
-0.4999318244333453
-0.5005519304487538
-0.5012452343582331
-0.5018328848781299
-0.5021820286490479
-0.5022362058156348
-0.5020228066113056
-0.5016384099509271
-0.5012167257405585
-0.5008872408837285
-0.5007359405850993
-0.5007805396964462
-0.500968930975458
-0.5012012888480035
-0.5013673678704784
-0.5013856008572972
-0.5012312824678835
-0.5009456656700746
-0.5006235997386789
-0.500383130227308
-0.5003259387253119
-0.5005014581309821
-0.5008875418939907
-0.5013951262316106
-0.5018951599012811
-0.5022578366157799
-0.5023908665011412
-0.5022655803406613
-0.5019244971766907
-0.5014690013822289
-0.5010302358967181
-0.500730605608166
-0.500646915879326
-0.5007870958402142
-0.5010887401287781
-0.501440014771606
-0.5017154406767047
-0.5018146373702892
-0.5016925460468769
-0.5013732749100125
-0.5009442065778038
-0.5005314843613067
-0.5002627425478068
-0.5002275693738013
-0.5004485064110927
-0.5008728254985118
-0.5013878278409623
-0.5018535685596918
-0.5021414759452005
-0.5021674304946943
-0.5019118093845332
-0.5014235402772934
-0.5008084421567967
-0.5002043781019642
-0.4997481992241657
-0.4995422652472282
-0.4996298797469998
-0.4999871973293151
-0.5005337340787799
-0.5011569462204316
-0.5017419550920963
-0.5021973155680205
-0.5024709209173785
-0.5025543308400648
-0.5024770496308489
-0.502293980402026
-0.5020698236216682
-0.5018640859213783
-0.5017197921448474
-0.5016578899621278
-0.5016777665294414
-0.5017626471328951
-0.501887482203515
-0.5020266591243764
-0.5021595060955124
-0.5021313691051912
-0.5023113068238868
-0.5024795765756559
-0.5026149200708505
-0.5026928164335936
-0.502689875754786
-0.502588427634877
-0.5023803555887005
-0.5020697305397056
-0.5016741431373776
-0.5012246925323962
-0.5007644226559222
-0.5003447912096006
-0.5000197505928708
-0.49983743570481
-0.4998303607824517
-0.5000061775671406
-0.5003418516564241
-0.5007839288505095
-0.5012561644512158
-0.5016736330630241
-0.5019604036417401
-0.5020666683688524
-0.5019810431442969
-0.5017344551572801
-0.501393531428963
-0.5010438357096278
-0.5007665497387812
-0.5006152904598856
-0.5006009726461702
-0.5006906145314178
-0.500821104134841
-0.500923388949241
-0.5009488674821153
-0.5008891615669466
-0.5007825296248478
-0.5007039654902095
-0.5007408273488487
-0.5009609213980016
-0.5013836903925549
-0.5019652510640743
-0.5026034265805776
-0.5031614697152718
-0.5035027852798879
-0.5035265890865256
-0.5031958802860664
-0.5025518693639182
-0.5017111294947544
-0.5008436287505149
-0.5001334816288493
-0.4997306289855948
-0.4997081136160582
-0.5000409383639968
-0.5006154287517967
-0.5012654834671602
-0.5018216233735201
-0.5021560651647285
-0.5022116461780376
-0.5020095462124953
-0.5016364385716024
-0.5012154054309936
-0.5008680682262551
-0.5006783181729919
-0.5006689905807975
-0.500799528026726
-0.5009852565918677
-0.5011307404454267
-0.501164943045263
-0.5010663327959366
-0.5008703042046289
-0.5006570054436588
-0.5005234034783804
-0.5005484297452768
-0.5007630617791523
-0.5011363209094465
-0.5015826434023621
-0.5019879443789785
-0.5022449424299886
-0.5022859706971262
-0.5021035750358002
-0.5017535384454689
-0.5013396283482868
-0.5009837990322333
-0.5007897855325046
-0.500811028559275
-0.5010336749459069
-0.5013807967591772
-0.5017364144717154
-0.5019810519440967
-0.5020275344751641
-0.501846957248534
-0.5014783112091536
-0.5010192763872023
-0.500599788812972
-0.5003445602790669
-0.5003351354362073
-0.5005839056585895
-0.5010293494304795
-0.5015540231939168
-0.5020183462542508
-0.5022985393214654
-0.5023178052151938
-0.5020639864013337
-0.5015913415959675
-0.5010071363368103
-0.500445921096477
-0.5000367870059256
-0.4998714931459918
-0.499982483028047
-0.5003375772587845
-0.5008525632289388
-0.5014165451162307
-0.5019210812892323
-0.5022843861139892
-0.5024651889408642
-0.5024649389068973
-0.5023201843718158
-0.5020886668141653
-0.5018332651627336
-0.5016077549069738
-0.5014474841891016
-0.5013665309338814
-0.5013609632078865
-0.5014160627789949
-0.5015144167048752
-0.5016419612202978
-0.5017902434272934
-0.5016940521734891
-0.5019607280672139
-0.5022420994925583
-0.5024981140988553
-0.5026835742258313
-0.5027581108775407
-0.5026953338936248
-0.5024889629174699
-0.5021549142941327
-0.5017293973749077
-0.5012637873302296
-0.5008173715742458
-0.5004491011102817
-0.5002093304439781
-0.5001323461742324
-0.5002304227342753
-0.5004902596182924
-0.5008727927474605
-0.5013172320784453
-0.5017495536110458
-0.5020946593674196
-0.5022903476564343
-0.5023004335595327
-0.5021239849860379
-0.5017977862754349
-0.501390031707843
-0.5009851827760838
-0.5006628292119409
-0.5004763590938575
-0.5004386220588533
-0.5005202058999669
-0.5006616180435718
-0.5007954866826936
-0.5008712741273411
-0.5008742338030374
-0.500832221499924
-0.5008075611212695
-0.5008756520683681
-0.5010965684945566
-0.5014891081204635
-0.5020167729375121
-0.5025912265821829
-0.5030924224052908
-0.5033990322426866
-0.5034204775565607
-0.503122718582235
-0.5025420911442454
-0.5017833571748569
-0.5010000854172481
-0.5003590985816704
-0.4999965885715609
-0.4999792254822981
-0.5002846480709903
-0.5008094079810295
-0.5014013324905252
-0.5019039104543935
-0.5021977013140319
-0.5022276012313028
-0.5020110195668016
-0.5016271530843297
-0.5011910166515756
-0.5008188516906985
-0.5005943328940534
-0.5005460391128234
-0.5006438506458007
-0.500815266760699
-0.5009750554110433
-0.50105701194152
-0.5010367588859427
-0.5009384856250088
-0.5008241092750878
-0.5007688519985815
-0.5008316381011562
-0.5010308383116027
-0.5013344266771105
-0.5016684166766645
-0.5019405073430558
-0.5020704378357145
-0.5020168399477182
-0.5017922756424158
-0.5014620216823396
-0.5011265890085038
-0.5008923784774207
-0.5008387898942266
-0.5009922054822192
-0.5013158823983445
-0.5017195639497174
-0.5020856244145777
-0.5023031671464722
-0.5022998757003478
-0.5020632011031144
-0.5016457659680814
-0.5011533211060508
-0.5007172509791281
-0.500457918597541
-0.500449193804691
-0.5006958333311163
-0.5011318236750205
-0.5016401215934132
-0.5020863461409494
-0.5023550397057449
-0.5023782866297666
-0.502150643813107
-0.5017285746124225
-0.5012155352832028
-0.5007360488547631
-0.5004044127994243
-0.5002958677789416
-0.5004285189012446
-0.50076157684072
-0.5012099950366267
-0.5016698655391586
-0.5020458746446209
-0.5022727972993384
-0.5023262921016871
-0.5022221207399353
-0.5020059405019532
-0.5017376211908908
-0.5014747516797071
-0.5012597117532913
-0.501113369796388
-0.5010363098291677
-0.5010160857981212
-0.5010371684764782
-0.5010896304127316
-0.5011733761205516
-0.5012965577109876
-0.5011428225955328
-0.5014506658357246
-0.5018075192716223
-0.5021579469112426
-0.5024384505231002
-0.5025929412416359
-0.502586362818811
-0.5024130328474824
-0.5020981497810751
-0.5016927237813615
-0.5012635498384715
-0.5008806729285118
-0.500605059536596
-0.5004788277726703
-0.5005194728726273
-0.5007183886890886
-0.5010430970468952
-0.5014422548826348
-0.5018526475201639
-0.5022076567270677
-0.5024467727267701
-0.502525449381254
-0.5024240382886154
-0.502153889118826
-0.5017583189235677
-0.5013065078744096
-0.5008798909080852
-0.5005532317106459
-0.5003753891792959
-0.5003562413095957
-0.500465004474299
-0.5006413560732155
-0.5008160293486986
-0.5009341184148436
-0.5009734971189755
-0.5009523896267514
-0.5009233616841477
-0.5009550072949255
-0.5011066330154587
-0.5014041346896448
-0.5018255425025218
-0.5023016522750458
-0.5027318516916275
-0.5030102185253933
-0.5030543752168173
-0.5028297194074897
-0.5023632250438318
-0.5017428110965193
-0.501100431896797
-0.500580636722687
-0.5003016275467749
-0.5003207075410093
-0.5006167390788079
-0.5010966985903269
-0.5016238734851131
-0.5020571458240953
-0.5022883412174757
-0.5022676189461566
-0.5020120450801775
-0.5015969345444007
-0.5011327544920413
-0.5007332936238006
-0.5004836555387336
-0.5004179221091317
-0.500514030878827
-0.5007073448411336
-0.5009172020967568
-0.5010761132789293
-0.5011512087369406
-0.5011512867297445
-0.5011182193073102
-0.5011066447697935
-0.5011596271689268
-0.5012893405278248
-0.5014700907210708
-0.5016463679368626
-0.5017528960016889
-0.5017393111883669
-0.5015907955848411
-0.5013376503734931
-0.5010502976433407
-0.5008204591830629
-0.5007335390922725
-0.5008405991886208
-0.5011393259702854
-0.5015709103561694
-0.5020343001532405
-0.5024132528898291
-0.5026078137131615
-0.5025614567575839
-0.5022772308680854
-0.5018191443548685
-0.5012978874631686
-0.50084319543942
-0.5005690648512268
-0.5005415986435409
-0.5007600500731437
-0.5011578641816328
-0.50162322057566
-0.5020315120947424
-0.5022789844398411
-0.5023081917518487
-0.5021199405663078
-0.50177041909102
-0.501355124433513
-0.5009834228401039
-0.5007497046187324
-0.5007086901504421
-0.5008621309714567
-0.5011609820441585
-0.5015219100157504
-0.5018521475012508
-0.5020744980912237
-0.5021453344213817
-0.5020615694562131
-0.5018561697280119
-0.5015847516048971
-0.5013077892957122
-0.5010738070908238
-0.5009083969701579
-0.5008119346298024
-0.5007659495333784
-0.5007452465242046
-0.5007311089338234
-0.5007207717079861
-0.5007297575786543
-0.5007861388200305
-0.5005912232551222
-0.5008894346019053
-0.5012750206687264
-0.5016815393952607
-0.5020308315427271
-0.5022535531453919
-0.5023068888252576
-0.5021848270734116
-0.5019190002086653
-0.5015706355983062
-0.5012161457747982
-0.5009301613188667
-0.5007702075220731
-0.5007665207589074
-0.5009187579563329
-0.5011991728145087
-0.5015601336349648
-0.501943310841268
-0.5022884736339439
-0.502541015537437
-0.502658324573431
-0.5026154234482507
-0.5024098465225615
-0.502064791086491
-0.5016287397770846
-0.5011696596744778
-0.5007630362730791
-0.5004753423579247
-0.5003471908836978
-0.5003818868733833
-0.5005441445989022
-0.5007704000470029
-0.5009879104820791
-0.5011366831391709
-0.501187409580149
-0.5011499233640473
-0.5010694592114209
-0.5010114239893688
-0.5010388904010837
-0.501189726842694
-0.5014609787885983
-0.5018060275398679
-0.5021457391495514
-0.5023901810012065
-0.5024644956707476
-0.5023318797167428
-0.5020076488231036
-0.5015601569478306
-0.5010967588794775
-0.5007366116951267
-0.5005768248421257
-0.5006624658884685
-0.5009712812499947
-0.5014191805946676
-0.5018845133545478
-0.5022423475535162
-0.5023977056295377
-0.5023089199416003
-0.5019963573300009
-0.5015354527451941
-0.5010359167152515
-0.5006119266382282
-0.5003511660633777
-0.5002922040089217
-0.5004178557126443
-0.5006665199255664
-0.5009565000993444
-0.5012136422558623
-0.5013923826693546
-0.5014838936252124
-0.5015102418830967
-0.5015082688923531
-0.5015100345193819
-0.5015274654269938
-0.5015470353240444
-0.50153635151019
-0.5014598912975464
-0.5012976918959365
-0.5010597793105763
-0.5007905926610227
-0.5005608870949628
-0.5004486609461468
-0.5005145780329681
-0.5007799042393569
-0.50121484155712
-0.5017418582223799
-0.5022533697746585
-0.5026383460380934
-0.5028101509849837
-0.5027284879080446
-0.5024105006472968
-0.5019285067429609
-0.5013941591402271
-0.500931589827596
-0.5006455120477925
-0.5005931937701991
-0.5007694647472275
-0.5011101146888401
-0.5015124032144619
-0.5018653254540052
-0.502079778321151
-0.5021103143742028
-0.5019639017568385
-0.5016948683612368
-0.5013880825762789
-0.501134658241324
-0.5010063315641984
-0.5010355819385501
-0.5012074867732282
-0.5014658175819706
-0.5017311195086552
-0.5019245999604434
-0.5019902514794612
-0.5019089222047526
-0.5017009852448446
-0.5014176275547438
-0.5011238197536532
-0.5008782800576502
-0.5007166596101349
-0.5006432076679271
-0.5006333482498875
-0.5006458640947067
-0.5006402111866982
-0.5005930078209548
-0.5005082190014511
-0.5004175767636407
-0.500370742696863
-0.5001446721394101
-0.5003853678757035
-0.5007514176285022
-0.5011703129493046
-0.5015538358882629
-0.5018228230657158
-0.501928283776183
-0.5018631837754544
-0.5016625514133635
-0.5013928202637328
-0.5011338717678697
-0.5009588537313536
-0.5009172248981199
-0.5010252930342686
-0.5012659328311947
-0.5015961202535102
-0.5019587161486629
-0.502294457891228
-0.5025512956377027
-0.5026901621057542
-0.5026879289293421
-0.5025389795516173
-0.5022563922335919
-0.5018725555031066
-0.5014378299133287
-0.5010154024270215
-0.5006712969857262
-0.5004605579999621
-0.5004130690539704
-0.500523923976215
-0.5007525989643322
-0.501032365353137
-0.5012876975109538
-0.5014546006242034
-0.5014978829969798
-0.501420398616364
-0.5012615198662578
-0.5010849376456905
-0.5009588882931876
-0.5009344659648405
-0.501028816096788
-0.5012188498369601
-0.5014477576982777
-0.5016423561755425
-0.5017359542039185
-0.5016900410555105
-0.5015085847498972
-0.5012404626527688
-0.5009682032219219
-0.5007848575830636
-0.5007650475821436
-0.5009394577992765
-0.5012820241414861
-0.5017148579851194
-0.5021292662951784
-0.5024155984506701
-0.5024926612136479
-0.5023289917146616
-0.5019513779909535
-0.5014389783492482
-0.5009040482841022
-0.5004633217356695
-0.5002074330328411
-0.5001777554013839
-0.5003585251668051
-0.5006866964375631
-0.5010750238107602
-0.5014391071995554
-0.5017187915201347
-0.501887836412502
-0.5019508527478808
-0.5019309442332518
-0.5018540939018712
-0.5017367073053929
-0.5015809516246916
-0.5013792064648904
-0.5011252372733351
-0.5008269991971396
-0.5005152333292018
-0.5002433930537694
-0.5000774365392114
-0.500077758493329
-0.5002788466374659
-0.500673811274157
-0.5012097882489743
-0.5017965461349684
-0.5023260256844135
-0.5026971289177987
-0.502839111793258
-0.5027281118403538
-0.5023934055708367
-0.5019119651809845
-0.501391759398442
-0.5009465725250207
-0.5006679515026453
-0.5006020761522261
-0.5007390474707468
-0.5010184113507733
-0.5013489818067042
-0.501636083027413
-0.5018075320939561
-0.5018312369541793
-0.5017206295532656
-0.5015275880904759
-0.5013252888249156
-0.5011856099695212
-0.5011572343465691
-0.5012508453705085
-0.5014360654187662
-0.5016511572173683
-0.5018222994926577
-0.5018862352421276
-0.5018093573681953
-0.5015977191483502
-0.5012951970675403
-0.5009702999138256
-0.500695364200069
-0.5005244263246773
-0.5004769145065029
-0.5005326646473407
-0.500639918665299
-0.5007334664030179
-0.5007568555589541
-0.5006816697893477
-0.5005180731792481
-0.5003133452368949
-0.5001383600442686
-0.4998774615614091
-0.5000236249432872
-0.5003283774464594
-0.5007181385636547
-0.5010997847100395
-0.5013884402784298
-0.5015310229404774
-0.5015189869858571
-0.5013876902074397
-0.5012037108838279
-0.5010444663599107
-0.5009762857901651
-0.5010372726058326
-0.5012295454689183
-0.5015221250026447
-0.5018620972200136
-0.5021893112424619
-0.5024496734827315
-0.5026038225504288
-0.5026304907729121
-0.5025259480896123
-0.5023018121430364
-0.501983063180792
-0.5016067391144979
-0.5012202703543993
-0.5008775975486093
-0.5006316908644888
-0.5005238398886677
-0.5005723294189695
-0.5007645918761079
-0.501056588088851
-0.5013809317925654
-0.5016621623948848
-0.5018350482425763
-0.5018608299908374
-0.501736938935878
-0.5014974313627795
-0.5012036655182868
-0.500927304307356
-0.5007301383795142
-0.5006466947756568
-0.500675222101886
-0.5007801461610756
-0.5009052962866966
-0.5009936634667661
-0.5010074690078841
-0.5009422926588956
-0.5008306088110619
-0.5007328764243542
-0.5007179872066306
-0.5008387156929542
-0.5011103947119014
-0.5015006910489499
-0.5019345876345379
-0.5023130856003583
-0.5025395275390911
-0.5025457503814111
-0.5023113391381656
-0.5018715436854927
-0.5013117585847203
-0.5007489066682013
-0.5003032348281128
-0.5000676677187453
-0.5000841511059281
-0.5003350925236993
-0.500752616461331
-0.501241341300746
-0.5017055628637189
-0.5020713922568416
-0.5022979350804426
-0.5023765798557531
-0.5023215981895118
-0.5021574250361912
-0.5019080466600627
-0.5015922297913865
-0.5012255321347665
-0.500827081429597
-0.5004270307663037
-0.5000701413074741
-0.4998122945963149
-0.499709481189467
-0.4998020441680148
-0.5000994466984851
-0.5005714014156436
-0.501149344199934
-0.5017386424287779
-0.5022382577852927
-0.5025624634779943
-0.5026592148282772
-0.5025212431191841
-0.502187790591761
-0.5017365166400539
-0.501266645456322
-0.5008763270196327
-0.5006393247083069
-0.5005874805072806
-0.5007045854962866
-0.5009338851871104
-0.5011967501083651
-0.5014163124236254
-0.5015387533609507
-0.501546422857278
-0.5014598684213762
-0.5013289030670884
-0.5012154720805339
-0.5011731267721871
-0.5012290571106962
-0.5013742611446352
-0.5015651760094442
-0.5017364847546905
-0.501821205782167
-0.5017719560688264
-0.5015770462755098
-0.5012665306535152
-0.5009059206326126
-0.5005785670336009
-0.5003612727679637
-0.5003005186249285
-0.5003972994002921
-0.5006060503913471
-0.500848218057531
-0.5010359394084454
-0.5010982973018399
-0.5010024867257824
-0.5007641824371994
-0.5004442713271653
-0.5001323478217418
-0.4998196294127705
-0.499851000290978
-0.5000658358651285
-0.500394004037555
-0.5007426725123831
-0.5010256445221624
-0.5011881206223694
-0.5012197602430053
-0.5011533726189367
-0.5010509722249545
-0.5009822924079236
-0.5010026747310042
-0.5011371058310705
-0.5013748627495884
-0.5016753667260969
-0.5019819554084834
-0.502238031852876
-0.5024002310689555
-0.5024453998579765
-0.5023710607481651
-0.5021913594765485
-0.501931506913861
-0.5016232699319992
-0.5013025365480406
-0.5010081671512733
-0.500780165296039
-0.5006553244495737
-0.5006599728920743
-0.5008015401600081
-0.5010622373140746
-0.5013981934581245
-0.5017457478300945
-0.5020340372283896
-0.5022007542777557
-0.5022068615734343
-0.5020462868965468
-0.5017478500728552
-0.5013684970835265
-0.500979103514602
-0.5006463470004497
-0.5004157809822933
-0.5003014024314912
-0.5002852131872584
-0.5003269842792688
-0.5003809366173536
-0.5004137234236853
-0.5004176623753949
-0.500414574708778
-0.5004484038436314
-0.5005684122459644
-0.500808279390291
-0.5011684903825415
-0.5016087528408376
-0.5020536954383039
-0.5024103168628176
-0.5025918604113176
-0.5025414058646962
-0.5022492366033504
-0.5017597496847154
-0.5011655539922346
-0.5005887063805816
-0.5001523449582688
-0.4999498490942977
-0.5000210846950963
-0.5003439492123347
-0.5008439242901904
-0.5014172599971666
-0.5019586462172096
-0.5023840295663448
-0.5026428644424424
-0.5027189849582895
-0.5026231420354643
-0.5023820602556878
-0.5020287030677328
-0.5015968281591388
-0.5011205462646121
-0.5006372406515259
-0.5001906488993513
-0.4998307298122879
-0.4996082648710229
-0.4995645500969804
-0.4997191061272035
-0.5000599320686422
-0.5005405764994146
-0.5010861346947751
-0.5016071466989042
-0.5020177288984979
-0.5022532038457462
-0.5022830930448984
-0.502116876859221
-0.5018015618556477
-0.5014114709249807
-0.501031954104321
-0.5007401417219705
-0.5005871923839763
-0.5005869286521408
-0.500714493577081
-0.5009157053430351
-0.5011242584821124
-0.5012814147764704
-0.5013523345583183
-0.5013345839507354
-0.5012567685598733
-0.5011678842663659
-0.5011203934155102
-0.5011518876242033
-0.5012709506831579
-0.5014519236168393
-0.5016406656061938
-0.5017699294075676
-0.5017799535146659
-0.5016383237984806
-0.5013532797611724
-0.5009760953080834
-0.5005906566516675
-0.5002917879947116
-0.5001577832494034
-0.5002256101581021
-0.5004774636849828
-0.5008438342944248
-0.501222312104978
-0.5015059035508146
-0.501612145012269
-0.5015050949206492
-0.5012049590821264
-0.5007831644970318
-0.5003437263673336
-0.4999566649693141
-0.499872026659526
-0.4999850121818831
-0.5002325762130178
-0.5005269139779012
-0.5007847481590244
-0.5009519820925322
-0.5010164000461781
-0.5010058029854403
-0.5009736703452848
-0.5009779440035982
-0.5010602166319591
-0.5012320587562552
-0.5014724392233125
-0.5017360600141234
-0.5019686000108913
-0.5021229328910587
-0.5021709429136189
-0.5021079974878222
-0.5019501833987663
-0.5017268660511449
-0.5014722288818405
-0.5012189781167855
-0.5009956857119917
-0.5008270955965489
-0.5007351529169433
-0.500738306153504
-0.500847885044689
-0.5010624101372022
-0.5013624289087477
-0.5017089346810339
-0.5020473382691716
-0.5023168874599656
-0.5024633670349876
-0.5024516881600455
-0.5022748691973271
-0.5019567441182405
-0.5015472142949571
-0.5011107549475524
-0.5007109113228947
-0.5003951130694018
-0.5001845333905819
-0.5000724077109288
-0.5000314452287393
-0.5000277513322834
-0.5000363145194452
-0.5000524585393986
-0.5000948846663819
-0.5001986618588253
-0.5004000475400939
-0.5007182672217499
-0.5011410212535002
-0.5016195345115454
-0.5020756009275946
-0.5024188349110167
-0.5025691770353863
-0.5024786370305758
-0.502146914997336
-0.5016269164373212
-0.501017789306698
-0.5004453767768999
-0.5000334117324916
-0.4998727427932652
-0.4999982231726438
-0.500381309318951
-0.5009407101322062
-0.5015663681761778
-0.5021475325756655
-0.5025957714141238
-0.5028575247985196
-0.5029155845882189
-0.5027824658307505
-0.5024901539761873
-0.5020804003271294
-0.5015982307922261
-0.5010893003007272
-0.5005998231209553
-0.500176656055715
-0.4998651357944288
-0.4997035075660312
-0.4997147640693416
-0.4998985758034505
-0.5002268021913994
-0.5006453016522232
-0.501082656538702
-0.5014639567796667
-0.5017260707043887
-0.5018305007358174
-0.5017708321777099
-0.5015733005834115
-0.5012905205908275
-0.5009896788167205
-0.5007375268990975
-0.5005853420108861
-0.5005574274523061
-0.5006462882678751
-0.5008160852660577