<VTKFile type="StructuredGrid" version="1.0" byte_order="LittleEndian">
  <StructuredGrid WholeExtent="0 127 0 127 0 0">
    <Piece Extent=" 0 127 0 127 0 0">
      <PointData>
      </PointData>
      <CellData>
    <DataArray type="Float64" Name="c" format="ascii">
0.9065737477273298
0.8119126502756226
0.3118893856996425
-0.4573379632338275
-0.6503848954813144
-0.4953171093325456
0.2176769469780172
0.7598477614283996
0.7437669991585992
0.1158636868440033
-0.5503328479479558
-0.6119077892065189
-0.1398075548882741
0.7039387308583777
0.8837368038384694
0.9103681826095328
0.9130689372515086
0.9095659693255211
0.8804889662430793
0.7561971563915996
0.5826533996730698
0.4908524850145765
0.5041866875608005
0.6331327356068014
0.8223545087731926
0.8716580272066999
0.8491420116307813
0.7440575579281639
0.5808319509821611
0.6165415840412948
0.7882952230613439
0.8510279519195143
0.8737261180640069
0.883152333469129
0.8825447865612415
0.8616914294561422
0.765960624066369
0.5385281880659319
0.4522434064175741
0.5791637775746962
0.796973808012335
0.8043063446241103
0.4484920990839605
-0.7052081318707296
-0.9197600151625547
-0.7082635922504732
0.4288851608689128
0.753926320579124
0.5042191824433967
-0.6365104838043932
-0.9244611772643178
-0.9161080083300635
-0.5852239535411572
0.574668970071346
0.8549210541573535
0.8882745931153923
0.8633691303089485
0.8395742261064598
0.8414247182494556
0.868383171142466
0.8989333945263643
0.8983597286721418
0.8365270076757781
0.5984105655975864
0.3696841993678842
0.32231867071454
0.5096432543490939
0.7734102476029003
0.8508345794736119
0.8596132930748945
0.8552235694395872
0.8526303035734903
0.8544389743204499
0.8513117832184954
0.7879066957263675
0.4026631833411483
-0.5579849238667113
-0.7960863166359335
-0.7644691563495185
-0.4102546243794588
0.6000828875952466
0.8223279601954995
0.6718299979032524
-0.2109567358563364
-0.6779426257481371
-0.6812470199657149
-0.2284853429670261
0.6651272929884824
0.8118904827438913
0.5573593649487093
-0.4191244082505929
-0.7371177240420589
-0.7330113102665783
-0.39149890510401
0.6028322591491428
0.8588849360935988
0.8983936855872834
0.8934941732688239
0.8621557152275888
0.8299409041929835
0.8146109030595728
0.8247121625543966
0.8537500464635425
0.8839568536646142
0.8913590147151085
0.8802313137964248
0.8141014185953809
0.582644368418489
0.4150030860119972
0.4272621734324179
0.607510353051637
0.8306074419368503
0.8866747012988808
0.8469731391504255
0.5124563823782168
-0.689025603396577
-0.9504572486874222
-0.9490694203308576
-0.6820884531959158
0.5232617127912721
0.8542487855350344
0.9042220977354144
0.9059988166964167
0.8917464574065127
0.8758767374977792
0.8786128707008825
0.8987076120678903
0.8914927573094781
0.8917984618369154
0.8090958225039717
0.6502623724621311
0.583191105632878
0.6382575131407461
0.7880832166933703
0.8503703210298841
0.6260177064474503
-0.5031517306001398
-0.9037868047051406
-0.9262110692435611
-0.6245636432451388
0.5671733010309384
0.8652319718518579
0.9114412111020143
0.9168459518360005
0.8989556603001368
0.7616915860353987
0.07485373876362801
-0.5859697806134689
-0.7416124463496574
-0.7089434893894463
-0.375487132865235
0.5658642986154196
0.8139104208234715
0.7526459544318809
0.2879362977984599
-0.422067312377196
-0.2472029338423585
0.6091696713306751
0.8337273083224593
0.8740253338219572
0.8807155859874176
0.8812694038684658
0.8779797323213099
0.8629727826744837
0.830531007321875
0.8186502392084015
0.8399302470571708
0.8669991992892057
0.8272791926507329
0.5192062563579951
-0.5549526974132437
-0.806519105195172
-0.5518997343372719
0.5099164926070962
0.7858055941947898
0.6130917845033605
-0.3371109447963127
-0.7123587731322354
-0.6987041581867197
-0.2652266542336987
0.6659936576461932
0.8679456308783302
0.8893492739455364
0.8621893237283497
0.8375961977843676
0.8391514317738853
0.8664772200533278
0.8988447393361055
0.9056553220837563
0.8848655088492469
0.8134179313112101
0.7428214502766751
0.7391582168931506
0.8022393451100003
0.8529122651825751
0.8620154522587339
0.8555551534420128
0.8481870400692252
0.8451419257915367
0.8473371179921948
0.8509354102345573
0.8380649663324871
0.7443414038498329
0.4689904559826465
0.2905351280204611
0.3501671710316738
0.5786653495451438
0.8178376553684477
0.8449395520108834
0.5954188835912385
-0.5312573583285148
-0.8987889612091026
-0.9020770491228518
-0.5499630575478034
0.5865662986018669
0.841810017448259
0.8147719589523061
0.6014760277339033
0.4464715233118103
0.4480308755787623
0.6080298085653835
0.8266839583673501
0.8898186255030814
0.8924745716426996
0.8369745970730688
0.6248677445380436
0.4328983670983421
0.351580129468182
0.4205923669599005
0.6115164846526474
0.828733666696677
0.8823932528554621
0.8521295187050013
0.5993784460302427
-0.4119279179702776
-0.7459602759794033
-0.7362855736367302
-0.3684537339903489
0.6305019231763008
0.8600212642220399
0.8461744627729602
0.5207198773681947
-0.6780320290583641
-0.9471033268429245
-0.9493098225754543
-0.6890804707035937
0.5184402514851475
0.8534652235153345
0.9048900610916663
0.9108828690213758
0.9089836599839087
0.9010469089970922
0.8807357313351755
0.8666827299648258
0.7227776209569567
0.8706391864227406
0.898336284493526
0.8842703377042751
0.8755763548390632
0.8834516398054697
0.8998416852530287
0.877779993590902
0.6383570484322564
-0.483087917308071
-0.8962591001903486
-0.9173929829210894
-0.5983351847263998
0.5792793488165823
0.8679387547177065
0.9124778438093589
0.9152650243434395
0.8763582278690805
0.5955235168852059
-0.577177968987018
-0.9222174326912106
-0.9789142088248158
-0.9610343684112554
-0.7623719980473251
0.2818593250177048
0.7498897166840697
0.6692539301814424
-0.0855469953026408
-0.7489394041576353
-0.5863523070795642
0.4984842304938802
0.8163923168048849
0.8707768918666046
0.8788953721078203
0.8801433112600069
0.8806960373786341
0.8802779845260676
0.8780295765467995
0.8772680993783833
0.8776102305509507
0.8764722148001016
0.8561378139647779
0.7454630642197951
0.3461811927443829
0.07647054088094171
0.3638290776740668
0.7572773310973662
0.8583735879009688
0.8242726502770581
0.6245385668629313
0.4712169591865885
0.4799597850855125
0.6462061993767289
0.839914072046284
0.8826114483706441
0.8366594852732654
0.6376089051619023
0.4908200703731643
0.4927499599636643
0.6403131028456098
0.8389720179585501
0.8848873905588002
0.8342924123457616
0.6247199225918243
0.4807807967161165
0.5432157921232154
0.7597829796191881
0.8505381774908191
0.8626740735923899
0.8552418660246897
0.8470173510500077
0.8431710568923942
0.8447643982691621
0.8504894206760318
0.8553356766790678
0.8465300345124787
0.8093063940465275
0.7814673325469118
0.795561943399089
0.8404515820238145
0.8813033636402533
0.8709886497314457
0.6967865962514981
-0.1496925575907944
-0.6529737522157794
-0.66277033142133
-0.1926672613488685
0.6848023602433
0.8693157706909904
0.8856398576482251
0.856005118394456
0.8298701580651282
0.8293686105102537
0.8553322793798693
0.8882107664508607
0.896656768658438
0.8647604231576953
0.6339421362773845
-0.3459081705186083
-0.7311519491540981
-0.7992148384716689
-0.7363326303328365
-0.3594236422606157
0.6278644411491697
0.8548479579870628
0.8310548577246947
0.4620689223530315
-0.7305816796161787
-0.9660137957938902
-0.962316750760047
-0.7104438872080091
0.4981440858994994
0.8444521163715687
0.8684625087212632
0.6719645972312994
-0.2468866569581126
-0.6742843047326106
-0.6908487904462047
-0.3174617741926035
0.645430153197426
0.8683661796196631
0.9047917814656706
0.9104526206661631
0.9037406784033847
0.8598542251670647
0.6968922674591779
0.5668138640398699
-0.09847909667958291
0.7190985580428099
0.8890910072050477
0.9128689555209624
0.9145826771964753
0.9136123577186565
0.9117711596095217
0.8947436956345288
0.7771414454645705
0.1861013275526909
-0.5092145711112676
-0.5628084812678136
-0.02186316088742225
0.7313700924697737
0.8883078350216582
0.9116392067618286
0.9097276429283657
0.8591180782811793
0.5089863101050429
-0.7284491521116062
-0.9745941441339657
-1.007531728392213
-0.9926478501642062
-0.8292689299966485
0.1652129897024932
0.742935602576708
0.7454051196748434
0.3077472143999596
-0.3890420800696095
-0.1998930184336802
0.6244429954465035
0.8372521795108018
0.8746771675269173
0.8805842222220523
0.8818878932302694
0.883132895056934
0.8844341268230234
0.8837575909127747
0.8736940621059859
0.8415150163716537
0.8159286533710193
0.8113108388158847
0.8115863977613621
0.7733857404819886
0.7380633991251675
0.7951221304555359
0.8668766439416822
0.8918017375642385
0.8895894091482427
0.8622590833092504
0.8388146864257847
0.8402726757077235
0.8655368201153337
0.8893351248437038
0.8630353201621349
0.6356793430279073
-0.3375687684447795
-0.7094794803106551
-0.7102901669000765
-0.3477586876885977
0.6138148412416221
0.8133739053221886
0.609649287821547
-0.3465049749470579
-0.6742750258691659
-0.5032621293118597
0.3833526683235401
0.790745834101691
0.8591954035121874
0.860407967213738
0.853263041163454
0.8490440945987606
0.8496742921218897
0.8544306876293886
0.8611805776308639
0.8645310077122282
0.8532442389679069
0.8191308409248304
0.8023709457881713
0.8204245603385366
0.8585228679363358
0.8853346016509672
0.851771524706872
0.6854683682013126
0.5232115238618821
0.5095045516323711
0.6614112608148532
0.8411478796406781
0.8909709097587921
0.8996854000269475
0.8958066845853435
0.8909472553416986
0.8900795370472137
0.8938663578850559
0.8990446797032724
0.8957263069595579
0.8399852626970008
0.4714463007875196
-0.7192153866452143
-0.9623158325845315
-0.9930176544124326
-0.9628927639888832
-0.719783648984558
0.4757446656725737
0.8352132032931033
0.8362050190821186
0.4879904980969157
-0.7036766449741967
-0.9547880630096203
-0.9518420082457875
-0.6873628785532064
0.5161071285856991
0.8525902162268941
0.8968399967066593
0.8558945977806143
0.6782535776100208
0.526812111844015
0.4903118722130033
0.5851618348274691
0.7794513099560726
0.8466956765776043
0.8802325924877825
0.900950393901826
0.8794393085792453
0.6916484112297641
-0.1831401729136355
-0.6374581614803144
-0.6246791285964465
0.5686191800580137
0.866758881515852
0.9106321086744359
0.9097712302955601
0.8893264858996063
0.8702421720197933
0.8648371216387711
0.8541070134391284
0.7657807454505881
0.6197848439596934
0.6043798615401726
0.7356755622887529
0.8670348093749582
0.8859827647329722
0.8736769112739055
0.8641515491718506
0.8210893787356133
0.4944186508017797
-0.6924495106981409
-0.9481620051503256
-0.9841293891938093
-0.9615005721525587
-0.7552280274526378
0.3189168986643072
0.7903797349585451
0.8403469529085447
0.7507628098209983
0.6019708655538016
0.6495971685483095
0.8107820344710294
0.8621111478427882
0.8728059961982734
0.8769714177623218
0.8818446174648872
0.8865263211872536
0.8872284916252811
0.8754234778442173
0.806680887536966
0.5757829254212736
0.4148917403743113
0.4253555106683056
0.5951009167292768
0.8073576346008917
0.863977977121268
0.884455521305571
0.8970604822223254
0.9007711091372584
0.9003943820404253
0.8975017576992995
0.8959989121175662
0.8984008833123428
0.9021884433951857
0.8983652453557447
0.8432661616812106
0.4880763582531972
-0.7103527743653524
-0.9589485172513871
-0.9606451980201977
-0.7270822975975455
0.4197521002089076
0.7407570848570005
0.4103493956648682
-0.7284291606449743
-0.9432586879131465
-0.8348842895473575
-0.04342720442673925
0.7223280119900825
0.8585056865751405
0.8689163506839616
0.8616940543969038
0.8575409218702538
0.8593385993795316
0.8635846905166445
0.8665186275395222
0.856621931728566
0.7837924347841114
0.5412509355566361
0.3907456891382659
0.4312385579113039
0.6209290028934351
0.8369331406854634
0.8882331215147558
0.8732751380679195
0.8405485044207764
0.8087755119181128
0.8094245433227323
0.8378231059002664
0.867687892202898
0.8937264293876109
0.8999442892568315
0.8992511116271088
0.8984591445781952
0.8994057514566842
0.9012923341442862
0.8963404495887872
0.8342262931534615
0.4271935685799586
-0.7745702724346497
-0.9881440733149167
-1.012310895152797
-0.9875470553049676
-0.7703859859238111
0.4410405245197591
0.8363866324945646
0.8651246560833075
0.6554326453019182
-0.2865889666293832
-0.6824814837419689
-0.676827500822936
-0.2610838993155766
0.6675865726770399
0.8747980541886304
0.9062277974897027
0.904957010509242
0.8814134753649625
0.8490265684889847
0.7867418659918786
0.6051707411798342
0.50729690726058
0.5423089266988534
0.6942773754448474
0.8539913250671228
0.8500106702343024
0.5446766602082999
-0.6514361893187931
-0.9369804642142803
-0.6511978502957662
0.553817230563057
0.8620505028939416
0.9017205474863096
0.8653919968923979
0.7082157792709419
0.575058013622495
0.5734533701346938
0.7002361197387805
0.8432179787403168
0.8664701730817017
0.871600124565805
0.8846011332333449
0.8671758299887855
0.7343278228328813
0.5914697372143927
0.5549400073525328
0.5994481708976991
0.5216141608342556
-0.3561870420907191
-0.705308206465309
-0.7711103248791694
-0.7171706272377948
-0.3686279410174671
0.5870472406369113
0.8449805992392279
0.8783841776858261
0.8647166006348982
0.8415117994953754
0.8384574392986851
0.8295256238622891
0.8064690132462553
0.7951021570889024
0.811651070589932
0.8473089405711807
0.8811811967208242
0.8864494128310191
0.8430291153131257
0.5646765337102825
-0.4366225033867474
-0.7466552860962276
-0.7308467893671704
-0.35923023325901
0.6338960020314701
0.8657839669886013
0.9000968326036892
0.8932350707014135
0.8706690560646582
0.8554349923403061
0.8534699106740238
0.8659096919057307
0.889301510254445
0.9049907617127815
0.9017768025239987
0.8461618318100311
0.4928250887764354
-0.7074166409502222
-0.9588536848888478
-0.9624445373045458
-0.7338976886139772
0.4090665065750639
0.7346586790809475
0.3993378351555337
-0.733317845381604
-0.940768490316908
-0.8167827843566854
0.02859008234081101
0.7445727619023159
0.8672628244359222
0.863986225008838
0.8393356837296505
0.8347105324382214
0.8540787920497724
0.8715325085276185
0.8711061234676081
0.8233786754350294
0.526685160187189
-0.4806900169458275
-0.7632462060979542
-0.7345336441612702
-0.3500628003894085
0.6417367089640077
0.8695424639562493
0.893352892729733
0.843361422094174
0.6553337304172925
0.5125951585803521
0.5164350039080725
0.6580446252220612
0.8435442733135391
0.8936679499332809
0.9012130667354209
0.9012943970048133
0.9017369800142159
0.9033288859747225
0.8999373030818824
0.8493425286562963
0.5058721359603655
-0.6828833353237281
-0.9484717888760288
-0.9830898291723962
-0.9470585895486655
-0.6745064687330929
0.5202558940409756
0.8553336447825505
0.897057113107006
0.8516100321910784
0.6683631272856134
0.5330138113745649
0.5349438465544074
0.6684259657311904
0.8348342512544098
0.8685509899952596
0.8792467329471385
0.8982972406101142
0.9065005750627939
0.878022728890767
0.6775672997149198
-0.2418031041334764
-0.6630103181125945
-0.646640950611643
-0.1747830647657325
0.686813598119079
0.8235540357907573
0.5345861255340288
-0.660758709143589
-0.9415094961479791
-0.2199835702846443
0.6847932355144609
0.8773142467334175
0.8792415720214867
0.6968382825506589
-0.1600026746850261
-0.628230922787851
-0.6278192625703131
-0.1591287712772395
0.6959724368471424
0.8804252498644353
0.9059273273210504
0.8870944722669486
0.7269903062228754
-0.04494986223910352
-0.5962507547966238
-0.6543466514073347
-0.3337888335103074
0.5096114982255749
0.5676962446790201
0.4799148412852571
0.4351516666909427
0.4799970224196207
0.6294343082036394
0.8275555431648115
0.8847803205279912
0.8924198438350435
0.8889633815542975
0.87589914567464
0.8158968630129723
0.5907997389214868
0.3810929060501635
0.2953886346133947
0.3869172916834295
0.6010309015775493
0.8268770846582277
0.8778036311308317
0.8127663875372338
0.3618899847091753
-0.7667174819211625
-0.9706592047648237
-0.961207110209605
-0.709112953077451
0.5084463490327682
0.8529574199077583
0.8841369650753678
0.7931391979203647
0.6174931398139341
0.5149645873557791
0.5041996476257131
0.5877173309713619
0.7576674586404709
0.8787235635995999
0.9031323115459164
0.8716402723215585
0.6457627935076148
-0.3249524474340725
-0.7090518239867647
-0.7192470429412172
-0.3768516565489556
0.5944112053618352
0.8016148503506322
0.5913318830244407
-0.3616072184018295
-0.6577082325755098
-0.4352446654005302
0.4808865480409207
0.82546745039113
0.8581619755254735
0.7492174772349633
0.5969439401380439
0.5872761036365345
0.7296865538416319
0.8530924537931048
0.8741063197918809
0.8030745541576848
0.3561012685154777
-0.7723883083402452
-0.9748525434579578
-0.9634797799579116
-0.7069164430724197
0.5045322016369651
0.847469916360737
0.8694343309236904
0.6651029182745803
-0.264043509722963
-0.6760213609481718
-0.6801734390980714
-0.2857406370166845
0.6529001095495888
0.869630810351237
0.9013339259614007
0.9024355344263175
0.8997336281517487
0.8991786157345716
0.8982794329252951
0.8721536122841728
0.6763341814863093
-0.2184869041704018
-0.6701226298547042
-0.750347618229806
-0.6654801215404449
-0.1961395483024046
0.6894250053699491
0.8798751965996831
0.9048127759834911
0.8995202622878895
0.8768622462763617
0.8595331925458273
0.856208702696206
0.8481390804715697
0.7682448221448602
0.6436364102890776
0.6491956002505754
0.7863765309463598
0.8820943559762883
0.8629229813678849
0.5644590689909218
-0.6435889291723255
-0.9352922967318872
-0.9336638238355908
-0.6368973425932674
0.5522854653846403
0.8248698683900028
0.6728933455563505
-0.2257184196839606
-0.6632871680530115
0.6806322016181299
0.8557930073133218
0.8975463214907733
0.8560196079480152
0.5266231475058086
-0.6662097616015907
-0.9393413491041692
-0.9390652426793464
-0.6647037591667131
0.5294157985697111
0.858681211595386
0.9037407973753412
0.8634984203384634
0.5549249652402716
-0.628656834181834
-0.9289115298266737
-0.9415693320891771
-0.7044870756397659
0.4558907430242556
0.8028881700534605
0.8432860983966167
0.8399128150218176
0.8441650713172351
0.8641036469141147
0.8894164060785873
0.8969690415499811
0.8973632077848237
0.8933654102604299
0.8580667758858812
0.6216377434409733
-0.371898043839648
-0.7453877993531814
-0.8097660769515478
-0.7435048498789304
-0.3640136013194863
0.6277585512960483
0.852123139300008
0.8044008552544438
0.3105187649380342
-0.8107356998738194
-0.9936195016141322
-0.9828997809327035
-0.7443636685523414
0.4933410903292838
0.8418692456899481
0.7935389273642103
0.266255942935667
-0.5015627122039342
-0.7162160529184368
-0.7294013058051813
-0.570126172901994
0.09704900380636575
0.7618874079365462
0.8930877401413573
0.9007789667117306
0.8461374380728128
0.6460605904725589
0.491489439562505
0.4813996978984464
0.6229013149426338
0.8264817882609856
0.8738844553455071
0.8237345376711598
0.6276110077430775
0.526544986066367
0.6132199546818337
0.8101420172658327
0.8669329181695486
0.7520502425280587
0.1233810425995108
-0.5113549947783599
-0.5287215172479954
0.06098180096673825
0.7358336486795708
0.8670746501220629
0.8172820379451367
0.4011374746264519
-0.7462729466162158
-0.965780251702655
-0.9573904185334552
-0.6960462502334201
0.5113825666046286
0.8457846080559955
0.8435595704688712
0.4934780745811723
-0.6968144137809203
-0.9488974226188783
-0.9503316859528034
-0.7042062012738842
0.4844798627052423
0.8462864506311318
0.897276951505901
0.8852230369676682
0.8568237101889576
0.8393702562887939
0.8389731553115144
0.8469743406996172
0.8257930932055867
0.6775094316203172
0.5355901840884347
0.4860608970066986
0.5400697577645376
0.6927460363813694
0.8534365878048401
0.8752331220830045
0.8634107498974734
0.8640777627004538
0.8820121581200008
0.9007719173199067
0.8895624834988637
0.7695683994564574
0.1836771519884704
-0.4609351122384302
-0.4541732554992626
0.2050172226279088
0.7720684729821098
0.8479951804196764
0.5761222538378326
-0.6099544605637308
-0.9257373967832286
-0.9282694422198676
-0.6229433348449447
0.5654359069942296
0.8539993178353132
0.8509671557625659
0.6811256016145547
0.5387277993790434
0.8778818032822139
0.9024987316730442
0.9039524424796535
0.8457392572012588
0.4577320884609018
-0.7637307862246893
-0.9837095981555124
-0.9836101097687093
-0.7626672965786307
0.4589359701524192
0.8458551079547705
0.8994000315808908
0.8495779349659875
0.4780634139246741
-0.7497872206011047
-0.9790811465415497
-0.9806098485969676
-0.7629268453083839
0.4477781764181739
0.8405112121554622
0.8984640055757036
0.9015405682022598
0.8991639628538802
0.8987043071440125
0.8995298746375584
0.8995229575327248
0.8997742544674289
0.8949824018598538
0.8405367367175348
0.4769178918877272
-0.7193979219082096
-0.9626443827701585
-0.9932173126330175
-0.96287488953075
-0.719495011345439
0.476405011755171
0.8341550736504055
0.8254318675019006
0.4313593613366908
-0.7187412152534361
-0.9477766181863831
-0.9233895786101877
-0.5875872535223814
0.5816328703267406
0.8361672701641941
0.6353212753970381
-0.4818386400978401
-0.8912154265180717
-0.9658344517622448
-0.9698119744422715
-0.9126398748867329
-0.5619932696811867
0.6024402871368234
0.8748699826785525
0.9105819649873058
0.9032058135014688
0.8727455570687788
0.8465915133758781
0.8428270679991889
0.8629721734801702
0.8902556005960434
0.8963543018477008
0.8863968875421735
0.8579967393213899
0.8438310565007905
0.8593687413616868
0.88556473443725
0.8568339833002637
0.5715603715740188
-0.5751445541305624
-0.9076664167897029
-0.9111698543941994
-0.5915172146053057
0.5652902161927023
0.8526914722741286
0.8548381940512759
0.6091903812661279
-0.367181858874058
-0.7126298230477678
-0.6984548855701072
-0.2969092584520064
0.6583694578142348
0.8667891768850533
0.8322365490373971
0.4070725639312438
-0.7868649149671203
-0.9890345452048457
-0.9889343384647112
-0.7862101366913556
0.4091907103102683
0.8316607114203446
0.8693033741476502
0.7531949851939671
0.5565098852763564
0.4413411668036274
0.4316425253088259
0.5203296615315586
0.6859581320759079
0.8307456389575614
0.8538748034697327
0.8533761975161974
0.8612060322621663
0.874950020373816
0.8517225160308769
0.69054839207734
0.5569615743654821
0.5620101048501176
0.7031940713696503
0.8602106825641906
0.8624486733304835
0.5932310334797882
-0.5522358409634216
-0.8999667063679755
-0.8985100025980637
-0.5451699307292005
0.593957432593535
0.8423404668411206
0.7178403544695563
-0.07185736975244104
-0.6048752094029533
-0.6143880574947946
-0.1129631903530346
0.7108301367114847
0.8804002859154687
0.895702842999247
0.8731058890695594
0.853510095457544
0.9067199728475023
0.9111616626997907
0.9064723034136459
0.8532838348899685
0.5036571873980873
-0.700634796157346
-0.9505851464604753
-0.9491032890251651
-0.6927365817799305
0.5063447245365924
0.8516446185970139
0.8989089096346435
0.8542615963320322
0.5197344328279958
-0.6801159839527735
-0.9437381297853409
-0.9423892281898439
-0.6755027343009299
0.5202065231290302
0.8554788304912001
0.9043555852478219
0.9070833376373205
0.9042669427041221
0.901092952798267
0.8969948614606755
0.8948627199596815
0.8964854204897179
0.8946782233351454
0.8389934094402863
0.4491041272544833
-0.7639304268168964
-0.9850440110179912
-1.01096544718944
-0.986915069879463
-0.7709714317343002
0.4379586654505765
0.8345875977764717
0.8617835793496693
0.6468343613304636
-0.2685612178253622
-0.6444368843852472
-0.5637320701042284
0.08163182781237292
0.7575476206770995
0.8519721263511933
0.558055352944531
-0.6901265176379104
-0.9606413093083145
-0.9984745314391088
-0.9999371081945307
-0.9678554203164257
-0.7178244288965349
0.5313762218475407
0.8669714056248757
0.913774519873121
0.9138505359211541
0.9052108255034509
0.8978491662024751
0.8954819576285814
0.8980863814104666
0.9015998663867663
0.9009578059100882
0.8980732220305083
0.8940277642248755
0.893053193575298
0.8966081634789556
0.8962471933576802
0.8430568419665028
0.4736994267305384
-0.7434462891112458
-0.9760822958265036
-0.9756163527774724
-0.7402789567866821
0.4858021236641321
0.8477347969251248
0.8912363800954927
0.8379038468539571
0.6370530725338411
0.4989829558353752
0.5074869410532166
0.6572176264031268
0.8488929610900244
0.8940774678728651
0.8373484953739024
0.4165249522415839
-0.7805680050463061
-0.9864820204233282
-0.9848578546692937
-0.7722842784990175
0.4277764535324911
0.820225426706188
0.7606033751351006
0.1318227205366107
-0.5871699066106192
-0.7632565846169643
-0.7749867422734926
-0.6647310923196884
-0.1561584499618743
0.7027701759704387
0.8805031070087747
0.9053570553411936
0.9050639264904474
0.8776844531792202
0.6856567901896446
-0.2044961207628053
-0.6490803176683207
-0.6394465391896823
-0.1621589748754874
0.6914494870011644
0.8223364470947537
0.5029671575785449
-0.7230897763914075
-0.9716825762484058
-0.9708993570336015
-0.7171807407808911
0.5183479090459764
0.8519517028960477
0.8644773434680512
0.7233886950644991
0.5798546808875208
0.5749575354596432
0.7110351683464411
0.856354182493564
0.8731624632609285
0.8582609101129609
0.8546209646028377
0.8717717544418068
0.9029706992164861
0.9112990874806497
0.9066169877395767
0.8707014533988316
0.6475100589601205
-0.3118028794334717
-0.6873382764985123
-0.6752591044120939
-0.2609538767056392
0.6657339895673444
0.8742238882153689
0.9023643813228592
0.8760097656400947
0.6757998703912823
-0.2291903083831121
-0.656605796524653
-0.6526181403363454
-0.2104060817185323
0.6832233668282888
0.87878053486371
0.9060828735595718
0.9065344735449025
0.9026452672244943
0.8919715724481527
0.8640778200525447
0.8441863237244553
0.8484623981500764
0.8683578778115471
0.8463203885285652
0.5305548398095239
-0.6540614203017109
-0.9402546702144119
-0.9804627110865705
-0.9468344304516263
-0.6788788165992722
0.5128090194893782
0.8515558241008643
0.8938219060738348
0.8490277344586463
0.6756555931499143
0.5632470115323389
0.600894118552896
0.7624060533228921
0.8836253157241653
0.8720653628356039
0.5661594133111093
-0.6840760741225078
-0.9589038629573682
-0.9974284607558375
-0.9981488241017812
-0.9623144404630181
-0.6975282115429076
0.5490002085115133
0.8717374332859888
0.9127610685091736
0.8996126350210064
0.8719313065279922
0.8550927238606317
0.8569925657179729
0.8762437174279157
0.8971909158142255
0.9020893703913738
0.9012366323353032
0.899442600473809
0.8974197486511525
0.8964526288257653
0.8924959940865587
0.8425828261782207
0.4974139342248032
-0.6970098572819347
-0.948698103939513
-0.9460258819236367
-0.6824657286110555
0.5200724869577071
0.8524289809506475
0.8989091124768706
0.8934699092315661
0.8658679368982733
0.8470467742325207
0.8508392180003117
0.8743647320394115
0.9014214291946774
0.9048589752448752
0.8553755923596772
0.5193038677015726
-0.6610133768158787
-0.9334668417365133
-0.9274848434379195
-0.631382928929726
0.5366571598693636
0.8224704851929058
0.6383433496332944
-0.4631429020837219
-0.9028975949249946
-0.9803552155307613
-0.9851918552426369
-0.9370546582836903
-0.6266598812453879
0.5697308790193293
0.8647940099514908
0.9071007466761609
0.9055279716938736
0.8567825683553116
0.5366438229040312
-0.6625722007190824
-0.9406769367352865
-0.9367419167415375
-0.6432724878086336
0.5435639313809809
0.804340230730809
0.5416597320764656
-0.6371323864511078
-0.9299473358337933
-0.9274854205198388
-0.6216866579206284
0.5675738991411939
0.8659790683524801
0.9035531176319703
0.8875553047500652
0.8668588419826908
0.8649081748824942
0.8757999505850508
0.849846313418359
0.6833269908673205
0.5429531332856601
0.5399186498590204
0.6789590935012962
0.8781265058475406
0.9017062770331076
0.8818013080046003
0.8483810526599023
0.7803108084012652
0.5848430218688316
0.4883860485211109
0.5210711585389886
0.669609931003441
0.8502626124803009
0.8988414558715641
0.906391950285685
0.8996550428583153
0.8536284564772217
0.681514352283764
0.5448291145494484
0.5416860539733044
0.6785520799525364
0.8513816827911226
0.8992598624313831
0.9076803950961614
0.9059252271030225
0.8944477127521429
0.8386709155147111
0.6432849076513175
0.5059757909149556
0.5202642501951754
0.6696424694387403
0.8238012122400201
0.6936468202008811
-0.1323925896823558
-0.641815318264605
-0.7417662915009876
-0.6654339102588498
-0.2091804903547495
0.6826524524608838
0.8781787498218436
0.9052226772504637
0.9000849886087834
0.8772408522413013
0.8627579344305056
0.8713538028121488
0.8973467164200676
0.9147355796302392
0.889519602691528
0.6560939140109956
-0.4508801367113274
-0.8805522001482037
-0.9598670579003649
-0.9602753322963765
-0.8827533011457552
-0.4605207391157776
0.6492781994602953
0.8844780436332335
0.889810078565592
0.779622695288668
0.6017967818836718
0.5131866099628911
0.5428467400175968
0.6891135939777016
0.8555341593244621
0.8982720773283942
0.903025462228483
0.8961031589845533
0.8746984751326917
0.8530354343891989
0.848852939620707
0.8350639041277288
0.6383287376401
-0.2932699233832836
-0.6787887285162159
-0.6708546386146874
-0.2566661819483617
0.6577585561443271
0.8426297666665363
0.8526549710339388
0.8470828876882655
0.8535423245716002
0.8753698867936678
0.8979846173704407
0.9073188996943725
0.9114850313498686
0.9099418906468265
0.8832770815676705
0.7023959013954635
-0.1261891520712907
-0.6050514243593192
-0.5830178469541734
-0.03187215432636115
0.725340659589269
0.8565462665713089
0.661901619455231
-0.4071702136834638
-0.8861959610887568
-0.9747489676962346
-0.9826483145516172
-0.9362279827435724
-0.628071113487535
0.5665133949736612
0.8625666896031298
0.9051101458794304
0.9034647759566957
0.8535143954954607
0.5263060896053218
-0.6772467915910105
-0.9459178485671397
-0.9414947649196121
-0.6545070909407976
0.5434336575221085
0.8297351793809901
0.7059342701909227
-0.09327190929402732
-0.5998859331598694
-0.5905904665181597
-0.05043816487571159
0.7268847697781208
0.8871153575145817
0.9075596833366448
0.9068008569329062
0.9058615193421773
0.9043311246239705
0.8774798266644338
0.6835512813399758
-0.218651835677802
-0.6611891032355486
-0.6640248500092174
-0.2303697583107555
0.8494396381352802
0.8550062457940419
0.6963075370952366
0.5423499847199311
0.501189905902928
0.592279366984371
0.7796233553982881
0.8431699047337515
0.8749193346996036
0.8995854530346677
0.9063543964293047
0.9073445448915325
0.9069854185817313
0.9009238478452138
0.8775253127339422
0.8505643084802145
0.8256097508586344
0.8251995929204976
0.8515320915411341
0.8797895239816952
0.901630522264858
0.9030055000564554
0.8682550053809396
0.6417646519228859
-0.3196736304907604
-0.6931727727980755